      -----------------------------------------------------------      
     |                   =====================                   |     
     |                           x T B                           |     
     |                   =====================                   |     
     |                         S. Grimme                         |     
     |          Mulliken Center for Theoretical Chemistry        |     
     |                    University of Bonn                     |     
      -----------------------------------------------------------      

   * xtb version 6.4.1 (bd6e46d) compiled by 'conda@4901f00b25ba' on 2021-06-10

   xtb is free software: you can redistribute it and/or modify it under
   the terms of the GNU Lesser General Public License as published by
   the Free Software Foundation, either version 3 of the License, or
   (at your option) any later version.
   
   xtb is distributed in the hope that it will be useful,
   but WITHOUT ANY WARRANTY; without even the implied warranty of
   MERCHANTABILITY or FITNESS FOR A PARTICULAR PURPOSE.  See the
   GNU Lesser General Public License for more details.
   
   Cite this work as:
   * C. Bannwarth, E. Caldeweyher, S. Ehlert, A. Hansen, P. Pracht,
     J. Seibert, S. Spicher, S. Grimme, WIREs Comput. Mol. Sci., 2020, 11,
     e01493. DOI: 10.1002/wcms.1493
   
   for GFN2-xTB:
   * C. Bannwarth, S. Ehlert and S. Grimme., J. Chem. Theory Comput., 2019,
     15, 1652-1671. DOI: 10.1021/acs.jctc.8b01176
   for GFN1-xTB:
   * S. Grimme, C. Bannwarth, P. Shushkov, J. Chem. Theory Comput., 2017,
     13, 1989-2009. DOI: 10.1021/acs.jctc.7b00118
   for GFN0-xTB:
   * P. Pracht, E. Caldeweyher, S. Ehlert, S. Grimme, ChemRxiv, 2019, preprint.
     DOI: 10.26434/chemrxiv.8326202.v1
   for GFN-FF:
   * S. Spicher and S. Grimme, Angew. Chem. Int. Ed., 2020, 59, 15665-15673.
     DOI: 10.1002/anie.202004239
   
   for DFT-D4:
   * E. Caldeweyher, C. Bannwarth and S. Grimme, J. Chem. Phys., 2017,
     147, 034112. DOI: 10.1063/1.4993215
   * E. Caldeweyher, S. Ehlert, A. Hansen, H. Neugebauer, S. Spicher,
     C. Bannwarth and S. Grimme, J. Chem. Phys., 2019, 150, 154122.
     DOI: 10.1063/1.5090222
   * E. Caldeweyher, J.-M. Mewes, S. Ehlert and S. Grimme, Phys. Chem. Chem. Phys.
     2020, 22, 8499-8512. DOI: 10.1039/D0CP00502A
   
   for sTDA-xTB:
   * S. Grimme and C. Bannwarth, J. Chem. Phys., 2016, 145, 054103.
     DOI: 10.1063/1.4959605
   
   in the mass-spec context:
   * V. Asgeirsson, C. Bauer and S. Grimme, Chem. Sci., 2017, 8, 4879.
     DOI: 10.1039/c7sc00601b
   * J. Koopman and S. Grimme, ACS Omega 2019, 4, 12, 15120-15133.
     DOI: 10.1021/acsomega.9b02011
   
   for metadynamics refer to:
   * S. Grimme, J. Chem. Theory Comput., 2019, 155, 2847-2862
     DOI: 10.1021/acs.jctc.9b00143
   
   for SPH calculations refer to:
   * S. Spicher and S. Grimme, J. Chem. Theory Comput., 2021, 17, 1701-1714
     DOI: 10.1021/acs.jctc.0c01306
   
   with help from (in alphabetical order)
   P. Atkinson, C. Bannwarth, F. Bohle, G. Brandenburg, E. Caldeweyher
   M. Checinski, S. Dohm, S. Ehlert, S. Ehrlich, I. Gerasimov, J. Koopman
   C. Lavigne, S. Lehtola, F. März, M. Müller, F. Musil, H. Neugebauer
   J. Pisarek, C. Plett, P. Pracht, J. Seibert, P. Shushkov, S. Spicher
   M. Stahn, M. Steiner, T. Strunk, J. Stückrath, T. Rose, and J. Unsleber
   
 * started run on 2022/03/02 at 02:58:10.305     

           -------------------------------------------------
          |                Calculation Setup                |
           -------------------------------------------------

          program call               : /jet/home/maihfly/.conda/envs/Cyclodextrins-Env/bin/xtb bBiCyDNH_opt_xtb.xyz --chrg 0 --uhf 0 --opt
          hostname                   : e001
          coordinate file            : bBiCyDNH_opt_xtb.xyz
          omp threads                :                    96
          number of atoms            :                   158
          number of electrons        :                   482
          charge                     :                     0
          spin                       :                   0.0
          first test random number   :      0.44263323962534

   ID    Z sym.   atoms
    1    1 H      1, 13-22, 33-40, 51-57, 69-78, 90-99, 109-113, 125-134,
                  140, 141, 145-147, 149, 150, 152, 155-158
    2    6 C      2-7, 23-28, 41-46, 58-63, 79-84, 100-104, 114-119, 135,
                  136, 139, 142-144, 153, 154
    3    8 O      8-12, 29-32, 47-50, 64-68, 85-89, 105-108, 120-124, 148
    4    7 N      137, 138, 151

           -------------------------------------------------
          |                 G F N 2 - x T B                 |
           -------------------------------------------------

        Reference                      10.1021/acs.jctc.8b01176
      * Hamiltonian:
        H0-scaling (s, p, d)           1.850000    2.230000    2.230000
        zeta-weighting                 0.500000
      * Dispersion:
        s8                             2.700000
        a1                             0.520000
        a2                             5.000000
        s9                             5.000000
      * Repulsion:
        kExp                           1.500000    1.000000
        rExp                           1.000000
      * Coulomb:
        alpha                          2.000000
        third order                    shell-resolved
        anisotropic                    true
        a3                             3.000000
        a5                             4.000000
        cn-shift                       1.200000
        cn-exp                         4.000000
        max-rad                        5.000000


          ...................................................
          :                      SETUP                      :
          :.................................................:
          :  # basis functions                 413          :
          :  # atomic orbitals                 413          :
          :  # shells                          243          :
          :  # electrons                       482          :
          :  max. iterations                   250          :
          :  Hamiltonian                  GFN2-xTB          :
          :  restarted?                      false          :
          :  GBSA solvation                  false          :
          :  PC potential                    false          :
          :  electronic temp.          300.0000000     K    :
          :  accuracy                    1.0000000          :
          :  -> integral cutoff          0.2500000E+02      :
          :  -> integral neglect         0.1000000E-07      :
          :  -> SCF convergence          0.1000000E-05 Eh   :
          :  -> wf. convergence          0.1000000E-03 e    :
          :  Broyden damping             0.4000000          :
          ...................................................

 iter      E             dE          RMSdq      gap      omega  full diag
   1   -287.1070607 -0.287107E+03  0.458E+00    2.93       0.0  T
   2   -287.4072526 -0.300192E+00  0.250E+00    3.47       1.0  T
   3   -287.4142052 -0.695258E-02  0.828E-01    3.34       1.0  T
   4   -287.4214903 -0.728508E-02  0.147E-01    3.48       1.0  T
   5   -287.4220503 -0.559979E-03  0.727E-02    3.44       1.0  T
   6   -287.4221654 -0.115093E-03  0.311E-02    3.46       1.0  T
   7   -287.4222199 -0.545660E-04  0.126E-02    3.45       1.0  T
   8   -287.4222279 -0.800276E-05  0.398E-03    3.45       2.0  T
   9   -287.4222287 -0.725403E-06  0.161E-03    3.45       4.9  T
  10   -287.4222287 -0.867024E-07  0.706E-04    3.45      11.3  T
  11   -287.4222288 -0.149248E-07  0.212E-04    3.45      37.6  T

   *** convergence criteria satisfied after 11 iterations ***

         #    Occupation            Energy/Eh            Energy/eV
      -------------------------------------------------------------
         1        2.0000           -0.7311264             -19.8950
       ...           ...                  ...                  ...
       235        2.0000           -0.4066949             -11.0667
       236        2.0000           -0.4060450             -11.0490
       237        2.0000           -0.4016254             -10.9288
       238        2.0000           -0.4006941             -10.9034
       239        2.0000           -0.3804743             -10.3532
       240        2.0000           -0.3689423             -10.0394
       241        2.0000           -0.3465724              -9.4307 (HOMO)
       242                         -0.2198221              -5.9817 (LUMO)
       243                         -0.2092510              -5.6940
       244                         -0.1708354              -4.6487
       245                         -0.0860411              -2.3413
       246                         -0.0725124              -1.9732
       ...                                ...                  ...
       413                          0.6845085              18.6264
      -------------------------------------------------------------
                  HL-Gap            0.1267503 Eh            3.4491 eV
             Fermi-level           -0.2831972 Eh           -7.7062 eV

 SCC (total)                   0 d,  0 h,  0 min,  3.803 sec
 SCC setup                      ...        0 min,  0.012 sec (  0.311%)
 Dispersion                     ...        0 min,  0.028 sec (  0.727%)
 classical contributions        ...        0 min,  0.010 sec (  0.256%)
 integral evaluation            ...        0 min,  0.044 sec (  1.160%)
 iterations                     ...        0 min,  3.328 sec ( 87.524%)
 molecular gradient             ...        0 min,  0.345 sec (  9.072%)
 printout                       ...        0 min,  0.036 sec (  0.940%)

         :::::::::::::::::::::::::::::::::::::::::::::::::::::
         ::                     SUMMARY                     ::
         :::::::::::::::::::::::::::::::::::::::::::::::::::::
         :: total energy            -285.234473805302 Eh    ::
         :: gradient norm              0.155879357122 Eh/a0 ::
         :: HOMO-LUMO gap              3.449050686631 eV    ::
         ::.................................................::
         :: SCC energy              -287.422228760385 Eh    ::
         :: -> isotropic ES            0.747539673300 Eh    ::
         :: -> anisotropic ES         -0.035546153456 Eh    ::
         :: -> anisotropic XC         -0.030111247137 Eh    ::
         :: -> dispersion             -0.203064223422 Eh    ::
         :: repulsion energy           2.176913913897 Eh    ::
         :: add. restraining           0.000000000000 Eh    ::
         :: total charge              -0.000000000000 e     ::
         :::::::::::::::::::::::::::::::::::::::::::::::::::::

      ----------------------------------------------------------- 
     |                   =====================                   |
     |                        A N C O P T                        |
     |                   =====================                   |
     |               Approximate Normal Coordinate               |
     |                Rational Function Optimizer                |
      ----------------------------------------------------------- 

          ...................................................
          :                      SETUP                      :
          :.................................................:
          :   optimization level            normal          :
          :   max. optcycles                   474          :
          :   ANC micro-cycles                  20          :
          :   degrees of freedom               468          :
          :.................................................:
          :   RF solver                   davidson          :
          :   write xtbopt.log                true          :
          :   linear?                        false          :
          :   energy convergence         0.5000000E-05 Eh   :
          :   grad. convergence          0.1000000E-02 Eh/α :
          :   maximium RF displ.         1.0000000          :
          :   Hlow (freq-cutoff)         0.1000000E-01      :
          :   Hmax (freq-cutoff)         5.0000000          :
          :   S6 in model hess.         20.0000000          :
          ...................................................

generating ANC from model Hessian ...
Using Lindh-Hessian (1995)
 Shifting diagonal of input Hessian by    9.9367782257926644E-003
 Lowest  eigenvalues of input Hessian
    0.000000    0.000000    0.000000    0.000000    0.000000    0.000000
    0.010000    0.010042    0.010167    0.010207    0.010248    0.010303
    0.010355    0.010646    0.010692    0.010781    0.010928    0.011005
 Highest eigenvalues
    1.766327    1.915786    1.977307    2.027930    2.133499    2.216707


........................................................................
.............................. CYCLE    1 ..............................
........................................................................
   1   -287.4222288 -0.287422E+03  0.966E-05    3.45       0.0  T
   2   -287.4222288 -0.288992E-09  0.598E-05    3.45     133.0  T
   3   -287.4222288 -0.172349E-09  0.366E-05    3.45     217.5  T
     SCC iter.                  ...        0 min,  0.731 sec
     gradient                   ...        0 min,  0.337 sec
 * total energy  :  -285.2344738 Eh     change       -0.2540503E-08 Eh
   gradient norm :     0.1558781 Eh/α   predicted     0.0000000E+00 (-100.00%)
   displ. norm   :     0.4518321 α      lambda       -0.4301051E-01
   maximum displ.:     0.1135854 α      in ANC's #86, #77, #78, ...

........................................................................
.............................. CYCLE    2 ..............................
........................................................................
   1   -287.5156842 -0.287516E+03  0.166E-01    3.46       0.0  T
   2   -287.5158320 -0.147753E-03  0.980E-02    3.48       1.0  T
   3   -287.5157724  0.595987E-04  0.286E-02    3.47       1.0  T
   4   -287.5158574 -0.850100E-04  0.678E-03    3.48       1.2  T
   5   -287.5158617 -0.438082E-05  0.302E-03    3.47       2.6  T
   6   -287.5158621 -0.352645E-06  0.122E-03    3.48       6.5  T
   7   -287.5158622 -0.689704E-07  0.596E-04    3.48      13.3  T
   8   -287.5158622 -0.120172E-07  0.165E-04    3.48      48.3  T
     SCC iter.                  ...        0 min,  1.947 sec
     gradient                   ...        0 min,  0.333 sec
 * total energy  :  -285.2664654 Eh     change       -0.3199155E-01 Eh
   gradient norm :     0.0816210 Eh/α   predicted    -0.2589597E-01 ( -19.05%)
   displ. norm   :     0.4866316 α      lambda       -0.2158659E-01
   maximum displ.:     0.1305704 α      in ANC's #86, #78, #77, ...

........................................................................
.............................. CYCLE    3 ..............................
........................................................................
   1   -287.5755752 -0.287576E+03  0.139E-01    3.46       0.0  T
   2   -287.5757152 -0.140004E-03  0.827E-02    3.48       1.0  T
   3   -287.5756684  0.468419E-04  0.269E-02    3.47       1.0  T
   4   -287.5757382 -0.698639E-04  0.672E-03    3.48       1.2  T
   5   -287.5757427 -0.445122E-05  0.283E-03    3.48       2.8  T
   6   -287.5757431 -0.418503E-06  0.104E-03    3.48       7.7  T
   7   -287.5757432 -0.402948E-07  0.533E-04    3.48      14.9  T
   8   -287.5757432 -0.717637E-08  0.152E-04    3.48      52.2  T
     SCC iter.                  ...        0 min,  2.043 sec
     gradient                   ...        0 min,  0.373 sec
 * total energy  :  -285.2802580 Eh     change       -0.1379262E-01 Eh
   gradient norm :     0.0208622 Eh/α   predicted    -0.1334926E-01 (  -3.21%)
   displ. norm   :     0.4103985 α      lambda       -0.5002517E-02
   maximum displ.:     0.0986114 α      in ANC's #23, #86, #73, ...

........................................................................
.............................. CYCLE    4 ..............................
........................................................................
   1   -287.5857710 -0.287586E+03  0.698E-02    3.46       0.0  T
   2   -287.5857936 -0.226323E-04  0.416E-02    3.46       1.0  T
   3   -287.5857788  0.147811E-04  0.131E-02    3.46       1.0  T
   4   -287.5857990 -0.202346E-04  0.306E-03    3.46       2.6  T
   5   -287.5857999 -0.824767E-06  0.140E-03    3.46       5.7  T
   6   -287.5857999 -0.708293E-07  0.506E-04    3.46      15.7  T
   7   -287.5857999 -0.622498E-08  0.225E-04    3.46      35.3  T
     SCC iter.                  ...        0 min,  1.880 sec
     gradient                   ...        0 min,  0.370 sec
 * total energy  :  -285.2838551 Eh     change       -0.3597139E-02 Eh
   gradient norm :     0.0131642 Eh/α   predicted    -0.2922675E-02 ( -18.75%)
   displ. norm   :     0.4478078 α      lambda       -0.2813382E-02
   maximum displ.:     0.1541754 α      in ANC's #23, #19, #50, ...

........................................................................
.............................. CYCLE    5 ..............................
........................................................................
   1   -287.5885809 -0.287589E+03  0.595E-02    3.45       0.0  T
   2   -287.5885948 -0.138963E-04  0.360E-02    3.45       1.0  T
   3   -287.5885820  0.128802E-04  0.121E-02    3.45       1.0  T
   4   -287.5885997 -0.177512E-04  0.248E-03    3.45       3.2  T
   5   -287.5886001 -0.415503E-06  0.129E-03    3.45       6.1  T
   6   -287.5886002 -0.371431E-07  0.420E-04    3.45      18.9  T
   7   -287.5886002 -0.743756E-08  0.166E-04    3.45      48.0  T
     SCC iter.                  ...        0 min,  1.732 sec
     gradient                   ...        0 min,  0.358 sec
 * total energy  :  -285.2859147 Eh     change       -0.2059597E-02 Eh
   gradient norm :     0.0127179 Eh/α   predicted    -0.1688778E-02 ( -18.00%)
   displ. norm   :     0.4555339 α      lambda       -0.1738729E-02
   maximum displ.:     0.1930346 α      in ANC's #23, #19, #13, ...

........................................................................
.............................. CYCLE    6 ..............................
........................................................................
   1   -287.5913505 -0.287591E+03  0.534E-02    3.45       0.0  T
   2   -287.5913602 -0.963525E-05  0.325E-02    3.45       1.0  T
   3   -287.5913500  0.101727E-04  0.104E-02    3.45       1.0  T
   4   -287.5913640 -0.140654E-04  0.210E-03    3.45       3.8  T
   5   -287.5913643 -0.225803E-06  0.114E-03    3.45       7.0  T
   6   -287.5913643 -0.295819E-07  0.368E-04    3.45      21.6  T
   7   -287.5913643 -0.602432E-08  0.144E-04    3.45      55.4  T
     SCC iter.                  ...        0 min,  1.717 sec
     gradient                   ...        0 min,  0.327 sec
 * total energy  :  -285.2872183 Eh     change       -0.1303589E-02 Eh
   gradient norm :     0.0106285 Eh/α   predicted    -0.1049768E-02 ( -19.47%)
   displ. norm   :     0.4675558 α      lambda       -0.1255178E-02
   maximum displ.:     0.2132019 α      in ANC's #23, #13, #19, ...

........................................................................
.............................. CYCLE    7 ..............................
........................................................................
   1   -287.5953600 -0.287595E+03  0.519E-02    3.44       0.0  T
   2   -287.5953670 -0.700186E-05  0.316E-02    3.45       1.0  T
   3   -287.5953598  0.721884E-05  0.838E-03    3.44       1.0  T
   4   -287.5953699 -0.101406E-04  0.189E-03    3.45       4.2  T
   5   -287.5953701 -0.142766E-06  0.989E-04    3.45       8.0  T
   6   -287.5953701 -0.275608E-07  0.336E-04    3.45      23.7  T
     SCC iter.                  ...        0 min,  1.480 sec
     gradient                   ...        0 min,  0.347 sec
 * total energy  :  -285.2881740 Eh     change       -0.9557027E-03 Eh
   gradient norm :     0.0077563 Eh/α   predicted    -0.7647853E-03 ( -19.98%)
   displ. norm   :     0.4782359 α      lambda       -0.9664990E-03
   maximum displ.:     0.2082009 α      in ANC's #23, #13, #19, ...

........................................................................
.............................. CYCLE    8 ..............................
........................................................................
   1   -287.5988846 -0.287599E+03  0.524E-02    3.44       0.0  T
   2   -287.5988899 -0.530308E-05  0.319E-02    3.45       1.0  T
   3   -287.5988862  0.374669E-05  0.617E-03    3.44       1.3  T
   4   -287.5988920 -0.585902E-05  0.179E-03    3.45       4.4  T
   5   -287.5988921 -0.129573E-06  0.880E-04    3.44       9.0  T
   6   -287.5988922 -0.246937E-07  0.285E-04    3.45      27.9  T
     SCC iter.                  ...        0 min,  1.461 sec
     gradient                   ...        0 min,  0.355 sec
 * total energy  :  -285.2889183 Eh     change       -0.7442876E-03 Eh
   gradient norm :     0.0078936 Eh/α   predicted    -0.5937870E-03 ( -20.22%)
   displ. norm   :     0.4871155 α      lambda       -0.7892554E-03
   maximum displ.:     0.1990178 α      in ANC's #13, #23, #2, ...

........................................................................
.............................. CYCLE    9 ..............................
........................................................................
   1   -287.6008471 -0.287601E+03  0.528E-02    3.44       0.0  T
   2   -287.6008517 -0.452095E-05  0.321E-02    3.44       1.0  T
   3   -287.6008503  0.135353E-05  0.462E-03    3.44       1.7  T
   4   -287.6008533 -0.295666E-05  0.171E-03    3.44       4.6  T
   5   -287.6008534 -0.131857E-06  0.848E-04    3.44       9.4  T
   6   -287.6008534 -0.313163E-07  0.254E-04    3.44      31.3  T
     SCC iter.                  ...        0 min,  1.392 sec
     gradient                   ...        0 min,  0.358 sec
 * total energy  :  -285.2895338 Eh     change       -0.6155605E-03 Eh
   gradient norm :     0.0088088 Eh/α   predicted    -0.4882950E-03 ( -20.67%)
   displ. norm   :     0.4937640 α      lambda       -0.6968113E-03
   maximum displ.:     0.2242162 α      in ANC's #13, #23, #2, ...

........................................................................
.............................. CYCLE   10 ..............................
........................................................................
   1   -287.6015574 -0.287602E+03  0.521E-02    3.44       0.0  T
   2   -287.6015615 -0.408910E-05  0.315E-02    3.44       1.0  T
   3   -287.6015610  0.491692E-06  0.399E-03    3.44       2.0  T
   4   -287.6015628 -0.182040E-05  0.159E-03    3.44       5.0  T
   5   -287.6015629 -0.901865E-07  0.808E-04    3.44       9.8  T
   6   -287.6015629 -0.355712E-07  0.250E-04    3.44      31.8  T
     SCC iter.                  ...        0 min,  1.571 sec
     gradient                   ...        0 min,  0.361 sec
 * total energy  :  -285.2900845 Eh     change       -0.5506098E-03 Eh
   gradient norm :     0.0083919 Eh/α   predicted    -0.4333505E-03 ( -21.30%)
   displ. norm   :     0.4948784 α      lambda       -0.6362394E-03
   maximum displ.:     0.2359785 α      in ANC's #13, #2, #8, ...

........................................................................
.............................. CYCLE   11 ..............................
........................................................................
   1   -287.6013688 -0.287601E+03  0.502E-02    3.44       0.0  T
   2   -287.6013724 -0.362024E-05  0.303E-02    3.44       1.0  T
   3   -287.6013721  0.361337E-06  0.372E-03    3.44       2.1  T
   4   -287.6013735 -0.147768E-05  0.148E-03    3.44       5.4  T
   5   -287.6013736 -0.726020E-07  0.740E-04    3.44      10.8  T
   6   -287.6013736 -0.287928E-07  0.247E-04    3.44      32.2  T
     SCC iter.                  ...        0 min,  1.350 sec
     gradient                   ...        0 min,  0.326 sec
 * total energy  :  -285.2905965 Eh     change       -0.5120313E-03 Eh
   gradient norm :     0.0075677 Eh/α   predicted    -0.3960364E-03 ( -22.65%)
   displ. norm   :     0.5318459 α      lambda       -0.6232833E-03
   maximum displ.:     0.2567123 α      in ANC's #13, #2, #8, ...

........................................................................
.............................. CYCLE   12 ..............................
........................................................................
   1   -287.6005705 -0.287601E+03  0.519E-02    3.44       0.0  T
   2   -287.6005742 -0.368512E-05  0.313E-02    3.44       1.0  T
   3   -287.6005737  0.519223E-06  0.377E-03    3.44       2.1  T
   4   -287.6005753 -0.164668E-05  0.153E-03    3.44       5.2  T
   5   -287.6005754 -0.989035E-07  0.741E-04    3.44      10.7  T
   6   -287.6005755 -0.271621E-07  0.264E-04    3.44      30.2  T
     SCC iter.                  ...        0 min,  1.702 sec
     gradient                   ...        0 min,  0.340 sec
 * total energy  :  -285.2911091 Eh     change       -0.5125889E-03 Eh
   gradient norm :     0.0078491 Eh/α   predicted    -0.3997932E-03 ( -22.01%)
   displ. norm   :     0.5768397 α      lambda       -0.6525008E-03
   maximum displ.:     0.2749730 α      in ANC's #13, #2, #8, ...

........................................................................
.............................. CYCLE   13 ..............................
........................................................................
   1   -287.6005114 -0.287601E+03  0.543E-02    3.44       0.0  T
   2   -287.6005156 -0.411080E-05  0.328E-02    3.44       1.0  T
   3   -287.6005145  0.102410E-05  0.417E-03    3.44       1.9  T
   4   -287.6005168 -0.228229E-05  0.164E-03    3.44       4.9  T
   5   -287.6005170 -0.137078E-06  0.779E-04    3.44      10.2  T
   6   -287.6005170 -0.271794E-07  0.287E-04    3.44      27.8  T
     SCC iter.                  ...        0 min,  1.480 sec
     gradient                   ...        0 min,  0.318 sec
 * total energy  :  -285.2916548 Eh     change       -0.5457098E-03 Eh
   gradient norm :     0.0082709 Eh/α   predicted    -0.4348088E-03 ( -20.32%)
   displ. norm   :     0.6257647 α      lambda       -0.6910912E-03
   maximum displ.:     0.2888539 α      in ANC's #13, #2, #8, ...

........................................................................
.............................. CYCLE   14 ..............................
........................................................................
   1   -287.6001450 -0.287600E+03  0.590E-02    3.44       0.0  T
   2   -287.6001501 -0.511113E-05  0.357E-02    3.44       1.0  T
   3   -287.6001477  0.237631E-05  0.519E-03    3.44       1.5  T
   4   -287.6001517 -0.402016E-05  0.182E-03    3.44       4.4  T
   5   -287.6001519 -0.175661E-06  0.870E-04    3.44       9.1  T
   6   -287.6001519 -0.285296E-07  0.310E-04    3.44      25.7  T
     SCC iter.                  ...        0 min,  1.533 sec
     gradient                   ...        0 min,  0.346 sec
 * total energy  :  -285.2922369 Eh     change       -0.5820956E-03 Eh
   gradient norm :     0.0082314 Eh/α   predicted    -0.4808586E-03 ( -17.39%)
   displ. norm   :     0.6174529 α      lambda       -0.7383711E-03
   maximum displ.:     0.2609843 α      in ANC's #13, #2, #7, ...

........................................................................
.............................. CYCLE   15 ..............................
........................................................................
   1   -287.6049809 -0.287605E+03  0.573E-02    3.45       0.0  T
   2   -287.6049863 -0.540179E-05  0.345E-02    3.45       1.0  T
   3   -287.6049839  0.240600E-05  0.527E-03    3.45       1.5  T
   4   -287.6049879 -0.401845E-05  0.182E-03    3.45       4.4  T
   5   -287.6049881 -0.184770E-06  0.896E-04    3.45       8.9  T
   6   -287.6049881 -0.314147E-07  0.298E-04    3.45      26.7  T
     SCC iter.                  ...        0 min,  1.485 sec
     gradient                   ...        0 min,  0.337 sec
 * total energy  :  -285.2927752 Eh     change       -0.5383197E-03 Eh
   gradient norm :     0.0084385 Eh/α   predicted    -0.5099494E-03 (  -5.27%)
   displ. norm   :     0.7243019 α      lambda       -0.7973066E-03
   maximum displ.:     0.3128691 α      in ANC's #13, #2, #1, ...

........................................................................
.............................. CYCLE   16 ..............................
........................................................................
   1   -287.5971728 -0.287597E+03  0.773E-02    3.45       0.0  T
   2   -287.5971837 -0.108712E-04  0.468E-02    3.45       1.0  T
   3   -287.5971769  0.674095E-05  0.812E-03    3.45       1.0  T
   4   -287.5971871 -0.101677E-04  0.254E-03    3.45       3.1  T
   5   -287.5971875 -0.405128E-06  0.128E-03    3.45       6.2  T
   6   -287.5971875 -0.458135E-07  0.401E-04    3.45      19.8  T
   7   -287.5971875 -0.343141E-08  0.161E-04    3.45      49.5  T
     SCC iter.                  ...        0 min,  1.833 sec
     gradient                   ...        0 min,  0.356 sec
 * total energy  :  -285.2931595 Eh     change       -0.3843410E-03 Eh
   gradient norm :     0.0143270 Eh/α   predicted    -0.6077965E-03 (  58.14%)
   displ. norm   :     0.2864962 α      lambda       -0.5377484E-03
   maximum displ.:     0.1098255 α      in ANC's #2, #13, #1, ...

........................................................................
.............................. CYCLE   17 ..............................
........................................................................
   1   -287.6018548 -0.287602E+03  0.273E-02    3.45       0.0  T
   2   -287.6018562 -0.130814E-05  0.163E-02    3.45       1.0  T
   3   -287.6018558  0.380998E-06  0.241E-03    3.45       3.3  T
   4   -287.6018565 -0.756118E-06  0.868E-04    3.45       9.2  T
   5   -287.6018566 -0.382331E-07  0.455E-04    3.45      17.5  T
     SCC iter.                  ...        0 min,  1.223 sec
     gradient                   ...        0 min,  0.343 sec
 * total energy  :  -285.2935731 Eh     change       -0.4136012E-03 Eh
   gradient norm :     0.0076884 Eh/α   predicted    -0.2909445E-03 ( -29.66%)
   displ. norm   :     0.5552762 α      lambda       -0.6025063E-03
   maximum displ.:     0.2151861 α      in ANC's #13, #2, #1, ...

........................................................................
.............................. CYCLE   18 ..............................
........................................................................
   1   -287.6042981 -0.287604E+03  0.507E-02    3.44       0.0  T
   2   -287.6043029 -0.487223E-05  0.305E-02    3.44       1.0  T
   3   -287.6043005  0.242078E-05  0.530E-03    3.44       1.5  T
   4   -287.6043044 -0.391398E-05  0.177E-03    3.44       4.5  T
   5   -287.6043046 -0.161993E-06  0.866E-04    3.44       9.2  T
   6   -287.6043046 -0.263125E-07  0.281E-04    3.44      28.3  T
     SCC iter.                  ...        0 min,  1.578 sec
     gradient                   ...        0 min,  0.352 sec
 * total energy  :  -285.2939516 Eh     change       -0.3784712E-03 Eh
   gradient norm :     0.0105453 Eh/α   predicted    -0.3941418E-03 (   4.14%)
   displ. norm   :     0.5238538 α      lambda       -0.6353892E-03
   maximum displ.:     0.1979410 α      in ANC's #2, #1, #13, ...

........................................................................
.............................. CYCLE   19 ..............................
........................................................................
   1   -287.6079192 -0.287608E+03  0.542E-02    3.44       0.0  T
   2   -287.6079244 -0.514597E-05  0.326E-02    3.44       1.0  T
   3   -287.6079217  0.264292E-05  0.559E-03    3.44       1.4  T
   4   -287.6079260 -0.423826E-05  0.175E-03    3.44       4.6  T
   5   -287.6079261 -0.154610E-06  0.920E-04    3.44       8.6  T
   6   -287.6079261 -0.288860E-07  0.259E-04    3.44      30.7  T
     SCC iter.                  ...        0 min,  1.461 sec
     gradient                   ...        0 min,  0.347 sec
 * total energy  :  -285.2942488 Eh     change       -0.2971619E-03 Eh
   gradient norm :     0.0104686 Eh/α   predicted    -0.4048787E-03 (  36.25%)
   displ. norm   :     0.5180027 α      lambda       -0.4461601E-03
   maximum displ.:     0.2153658 α      in ANC's #13, #2, #1, ...

........................................................................
.............................. CYCLE   20 ..............................
........................................................................
   1   -287.5997211 -0.287600E+03  0.486E-02    3.44       0.0  T
   2   -287.5997256 -0.450474E-05  0.293E-02    3.44       1.0  T
   3   -287.5997217  0.388561E-05  0.577E-03    3.44       1.4  T
   4   -287.5997272 -0.547144E-05  0.168E-03    3.44       4.7  T
   5   -287.5997274 -0.154267E-06  0.812E-04    3.44       9.8  T
   6   -287.5997274 -0.139406E-07  0.265E-04    3.44      30.0  T
     SCC iter.                  ...        0 min,  1.495 sec
     gradient                   ...        0 min,  0.359 sec
 * total energy  :  -285.2945292 Eh     change       -0.2804373E-03 Eh
   gradient norm :     0.0074381 Eh/α   predicted    -0.2829463E-03 (   0.89%)
   displ. norm   :     0.3431401 α      lambda       -0.3356630E-03
   maximum displ.:     0.1352702 α      in ANC's #1, #2, #13, ...
 * RMSD in coord.:     0.6104934 α      energy gain  -0.6005541E-01 Eh

generating ANC from model Hessian ...
Using Lindh-Hessian (1995)
 Shifting diagonal of input Hessian by    9.9312905312021089E-003
 Lowest  eigenvalues of input Hessian
    0.000000    0.000000    0.000000    0.000000    0.000000    0.000000
    0.010000    0.010054    0.010184    0.010243    0.010318    0.010328
    0.010547    0.010682    0.010896    0.010916    0.011056    0.011141
 Highest eigenvalues
    1.875600    1.984312    2.103361    2.111547    2.218894    2.350544


........................................................................
.............................. CYCLE   21 ..............................
........................................................................
   1   -287.6016619 -0.287602E+03  0.326E-02    3.44       0.0  T
   2   -287.6016650 -0.307017E-05  0.197E-02    3.44       1.0  T
   3   -287.6016627  0.231893E-05  0.471E-03    3.44       1.7  T
   4   -287.6016658 -0.314861E-05  0.126E-03    3.44       6.3  T
   5   -287.6016659 -0.128342E-06  0.600E-04    3.44      13.3  T
   6   -287.6016660 -0.805653E-08  0.203E-04    3.44      39.2  T
     SCC iter.                  ...        0 min,  1.597 sec
     gradient                   ...        0 min,  0.341 sec
 * total energy  :  -285.2947681 Eh     change       -0.2388600E-03 Eh
   gradient norm :     0.0081969 Eh/α   predicted     0.0000000E+00 (-100.00%)
   displ. norm   :     0.0883341 α      lambda       -0.2220212E-03
   maximum displ.:     0.0298094 α      in ANC's #1, #36, #40, ...

........................................................................
.............................. CYCLE   22 ..............................
........................................................................
   1   -287.6045697 -0.287605E+03  0.137E-02    3.44       0.0  T
   2   -287.6045703 -0.636281E-06  0.827E-03    3.44       1.0  T
   3   -287.6045702  0.142428E-06  0.160E-03    3.44       5.0  T
   4   -287.6045704 -0.265117E-06  0.516E-04    3.44      15.4  T
   5   -287.6045705 -0.185724E-07  0.260E-04    3.44      30.6  T
     SCC iter.                  ...        0 min,  0.986 sec
     gradient                   ...        0 min,  0.343 sec
 * total energy  :  -285.2949561 Eh     change       -0.1880348E-03 Eh
   gradient norm :     0.0037088 Eh/α   predicted    -0.1119411E-03 ( -40.47%)
   displ. norm   :     0.3319725 α      lambda       -0.5507174E-03
   maximum displ.:     0.1124076 α      in ANC's #1, #36, #40, ...

........................................................................
.............................. CYCLE   23 ..............................
........................................................................
   1   -287.6087680 -0.287609E+03  0.475E-02    3.45       0.0  T
   2   -287.6087738 -0.586162E-05  0.289E-02    3.44       1.0  T
   3   -287.6087710  0.282510E-05  0.570E-03    3.45       1.4  T
   4   -287.6087753 -0.426832E-05  0.164E-03    3.44       4.8  T
   5   -287.6087755 -0.206990E-06  0.824E-04    3.44       9.7  T
   6   -287.6087755 -0.278320E-07  0.253E-04    3.44      31.4  T
     SCC iter.                  ...        0 min,  1.752 sec
     gradient                   ...        0 min,  0.339 sec
 * total energy  :  -285.2953877 Eh     change       -0.4315838E-03 Eh
   gradient norm :     0.0059494 Eh/α   predicted    -0.3057224E-03 ( -29.16%)
   displ. norm   :     0.5446392 α      lambda       -0.6726468E-03
   maximum displ.:     0.1855033 α      in ANC's #1, #36, #40, ...

........................................................................
.............................. CYCLE   24 ..............................
........................................................................
   1   -287.6075112 -0.287608E+03  0.791E-02    3.45       0.0  T
   2   -287.6075249 -0.137960E-04  0.483E-02    3.45       1.0  T
   3   -287.6075130  0.119042E-04  0.103E-02    3.45       1.0  T
   4   -287.6075295 -0.164391E-04  0.262E-03    3.45       3.0  T
   5   -287.6075299 -0.456550E-06  0.134E-03    3.45       5.9  T
   6   -287.6075300 -0.497495E-07  0.394E-04    3.45      20.2  T
   7   -287.6075300 -0.285439E-08  0.149E-04    3.45      53.3  T
     SCC iter.                  ...        0 min,  1.722 sec
     gradient                   ...        0 min,  0.337 sec
 * total energy  :  -285.2958730 Eh     change       -0.4853142E-03 Eh
   gradient norm :     0.0195299 Eh/α   predicted    -0.4369435E-03 (  -9.97%)
   displ. norm   :     0.3941361 α      lambda       -0.5670409E-03
   maximum displ.:     0.1410460 α      in ANC's #1, #40, #36, ...

........................................................................
.............................. CYCLE   25 ..............................
........................................................................
   1   -287.6046839 -0.287605E+03  0.556E-02    3.45       0.0  T
   2   -287.6046899 -0.600685E-05  0.338E-02    3.45       1.0  T
   3   -287.6046831  0.685357E-05  0.740E-03    3.45       1.1  T
   4   -287.6046920 -0.896607E-05  0.172E-03    3.45       4.6  T
   5   -287.6046922 -0.179517E-06  0.836E-04    3.45       9.5  T
   6   -287.6046922 -0.211787E-07  0.293E-04    3.45      27.2  T
     SCC iter.                  ...        0 min,  1.484 sec
     gradient                   ...        0 min,  0.374 sec
 * total energy  :  -285.2963504 Eh     change       -0.4774323E-03 Eh
   gradient norm :     0.0224817 Eh/α   predicted    -0.3276713E-03 ( -31.37%)
   displ. norm   :     0.4958812 α      lambda       -0.1579004E-02
   maximum displ.:     0.1825649 α      in ANC's #1, #40, #8, ...

........................................................................
.............................. CYCLE   26 ..............................
........................................................................
   1   -287.6018292 -0.287602E+03  0.712E-02    3.45       0.0  T
   2   -287.6018424 -0.132060E-04  0.430E-02    3.45       1.0  T
   3   -287.6018332  0.919881E-05  0.945E-03    3.45       1.0  T
   4   -287.6018463 -0.130977E-04  0.267E-03    3.45       3.0  T
   5   -287.6018467 -0.438229E-06  0.122E-03    3.45       6.5  T
   6   -287.6018468 -0.529832E-07  0.553E-04    3.45      14.4  T
   7   -287.6018468 -0.381021E-08  0.171E-04    3.45      46.4  T
     SCC iter.                  ...        0 min,  2.391 sec
     gradient                   ...        0 min,  0.389 sec
 * total energy  :  -285.2971351 Eh     change       -0.7846517E-03 Eh
   gradient norm :     0.0173414 Eh/α   predicted    -0.9836507E-03 (  25.36%)
   displ. norm   :     0.5271496 α      lambda       -0.1259817E-02
   maximum displ.:     0.2012071 α      in ANC's #1, #8, #36, ...

........................................................................
.............................. CYCLE   27 ..............................
........................................................................
   1   -287.5960215 -0.287596E+03  0.712E-02    3.45       0.0  T
   2   -287.5960347 -0.131675E-04  0.434E-02    3.45       1.0  T
   3   -287.5960193  0.153298E-04  0.114E-02    3.45       1.0  T
   4   -287.5960399 -0.205789E-04  0.267E-03    3.45       3.0  T
   5   -287.5960402 -0.334744E-06  0.136E-03    3.45       5.8  T
   6   -287.5960403 -0.416424E-07  0.465E-04    3.45      17.1  T
   7   -287.5960403 -0.417867E-08  0.157E-04    3.45      50.7  T
     SCC iter.                  ...        0 min,  1.880 sec
     gradient                   ...        0 min,  0.341 sec
 * total energy  :  -285.2978420 Eh     change       -0.7069156E-03 Eh
   gradient norm :     0.0271736 Eh/α   predicted    -0.8049523E-03 (  13.87%)
   displ. norm   :     0.1647995 α      lambda       -0.9135029E-03
   maximum displ.:     0.0847198 α      in ANC's #8, #1, #3, ...

........................................................................
.............................. CYCLE   28 ..............................
........................................................................
   1   -287.6026381 -0.287603E+03  0.266E-02    3.45       0.0  T
   2   -287.6026407 -0.254082E-05  0.162E-02    3.45       1.0  T
   3   -287.6026407 -0.321063E-08  0.275E-03    3.45       2.9  T
   4   -287.6026413 -0.642424E-06  0.980E-04    3.45       8.1  T
   5   -287.6026413 -0.165662E-07  0.546E-04    3.45      14.6  T
     SCC iter.                  ...        0 min,  1.283 sec
     gradient                   ...        0 min,  0.328 sec
 * total energy  :  -285.2983676 Eh     change       -0.5255642E-03 Eh
   gradient norm :     0.0207902 Eh/α   predicted    -0.4691629E-03 ( -10.73%)
   displ. norm   :     0.5274019 α      lambda       -0.1430282E-02
   maximum displ.:     0.2115918 α      in ANC's #8, #1, #36, ...

........................................................................
.............................. CYCLE   29 ..............................
........................................................................
   1   -287.6056248 -0.287606E+03  0.695E-02    3.46       0.0  T
   2   -287.6056360 -0.112105E-04  0.415E-02    3.45       1.0  T
   3   -287.6056340  0.193217E-05  0.620E-03    3.45       1.3  T
   4   -287.6056380 -0.395120E-05  0.262E-03    3.45       3.0  T
   5   -287.6056386 -0.608173E-06  0.939E-04    3.45       8.5  T
   6   -287.6056387 -0.484709E-07  0.451E-04    3.45      17.7  T
     SCC iter.                  ...        0 min,  1.514 sec
     gradient                   ...        0 min,  0.348 sec
 * total energy  :  -285.2993667 Eh     change       -0.9991293E-03 Eh
   gradient norm :     0.0097350 Eh/α   predicted    -0.9140736E-03 (  -8.51%)
   displ. norm   :     0.5931435 α      lambda       -0.9374074E-03
   maximum displ.:     0.2493696 α      in ANC's #1, #8, #36, ...

........................................................................
.............................. CYCLE   30 ..............................
........................................................................
   1   -287.6042153 -0.287604E+03  0.702E-02    3.46       0.0  T
   2   -287.6042288 -0.135633E-04  0.424E-02    3.45       1.0  T
   3   -287.6042207  0.814389E-05  0.902E-03    3.46       1.0  T
   4   -287.6042322 -0.114764E-04  0.280E-03    3.46       2.8  T
   5   -287.6042327 -0.535481E-06  0.120E-03    3.46       6.7  T
   6   -287.6042328 -0.692090E-07  0.510E-04    3.46      15.6  T
   7   -287.6042328 -0.336269E-08  0.139E-04    3.46      57.3  T
     SCC iter.                  ...        0 min,  1.752 sec
     gradient                   ...        0 min,  0.355 sec
 * total energy  :  -285.2998752 Eh     change       -0.5084884E-03 Eh
   gradient norm :     0.0183324 Eh/α   predicted    -0.6336141E-03 (  24.61%)
   displ. norm   :     0.2878720 α      lambda       -0.9514443E-03
   maximum displ.:     0.1011278 α      in ANC's #1, #8, #16, ...

........................................................................
.............................. CYCLE   31 ..............................
........................................................................
   1   -287.6134339 -0.287613E+03  0.328E-02    3.46       0.0  T
   2   -287.6134385 -0.463402E-05  0.200E-02    3.46       1.0  T
   3   -287.6134387 -0.196794E-06  0.330E-03    3.46       2.4  T
   4   -287.6134395 -0.761568E-06  0.117E-03    3.46       6.8  T
   5   -287.6134395 -0.281299E-07  0.575E-04    3.46      13.8  T
   6   -287.6134395 -0.115164E-07  0.276E-04    3.46      28.8  T
     SCC iter.                  ...        0 min,  1.353 sec
     gradient                   ...        0 min,  0.337 sec
 * total energy  :  -285.3003768 Eh     change       -0.5016044E-03 Eh
   gradient norm :     0.0112065 Eh/α   predicted    -0.5151755E-03 (   2.71%)
   displ. norm   :     0.3417408 α      lambda       -0.5517600E-03
   maximum displ.:     0.1549998 α      in ANC's #1, #8, #2, ...

........................................................................
.............................. CYCLE   32 ..............................
........................................................................
   1   -287.6108563 -0.287611E+03  0.345E-02    3.46       0.0  T
   2   -287.6108590 -0.273991E-05  0.208E-02    3.46       1.0  T
   3   -287.6108575  0.148031E-05  0.393E-03    3.46       2.0  T
   4   -287.6108597 -0.212381E-05  0.108E-03    3.46       7.4  T
   5   -287.6108597 -0.931051E-07  0.569E-04    3.46      14.0  T
   6   -287.6108598 -0.113974E-07  0.164E-04    3.46      48.5  T
     SCC iter.                  ...        0 min,  1.638 sec
     gradient                   ...        0 min,  0.357 sec
 * total energy  :  -285.3007957 Eh     change       -0.4188988E-03 Eh
   gradient norm :     0.0088447 Eh/α   predicted    -0.3081360E-03 ( -26.44%)
   displ. norm   :     0.4467074 α      lambda       -0.6017364E-03
   maximum displ.:     0.1964789 α      in ANC's #1, #40, #2, ...

........................................................................
.............................. CYCLE   33 ..............................
........................................................................
   1   -287.6075350 -0.287608E+03  0.442E-02    3.46       0.0  T
   2   -287.6075393 -0.422032E-05  0.265E-02    3.46       1.0  T
   3   -287.6075371  0.220246E-05  0.491E-03    3.46       1.6  T
   4   -287.6075403 -0.323329E-05  0.134E-03    3.46       6.0  T
   5   -287.6075404 -0.136586E-06  0.708E-04    3.46      11.2  T
   6   -287.6075405 -0.212050E-07  0.218E-04    3.46      36.5  T
     SCC iter.                  ...        0 min,  1.393 sec
     gradient                   ...        0 min,  0.349 sec
 * total energy  :  -285.3012217 Eh     change       -0.4260245E-03 Eh
   gradient norm :     0.0077904 Eh/α   predicted    -0.3609089E-03 ( -15.28%)
   displ. norm   :     0.3461625 α      lambda       -0.4302694E-03
   maximum displ.:     0.1360020 α      in ANC's #1, #2, #10, ...

........................................................................
.............................. CYCLE   34 ..............................
........................................................................
   1   -287.6080825 -0.287608E+03  0.336E-02    3.46       0.0  T
   2   -287.6080857 -0.311058E-05  0.202E-02    3.45       1.0  T
   3   -287.6080849  0.797175E-06  0.365E-03    3.46       2.2  T
   4   -287.6080864 -0.153900E-05  0.128E-03    3.46       6.2  T
   5   -287.6080865 -0.120372E-06  0.635E-04    3.46      12.5  T
   6   -287.6080865 -0.197772E-07  0.252E-04    3.46      31.6  T
     SCC iter.                  ...        0 min,  1.434 sec
     gradient                   ...        0 min,  0.352 sec
 * total energy  :  -285.3015191 Eh     change       -0.2973532E-03 Eh
   gradient norm :     0.0087800 Eh/α   predicted    -0.2409140E-03 ( -18.98%)
   displ. norm   :     0.4162965 α      lambda       -0.3992579E-03
   maximum displ.:     0.1713256 α      in ANC's #1, #10, #2, ...

........................................................................
.............................. CYCLE   35 ..............................
........................................................................
   1   -287.6075503 -0.287608E+03  0.417E-02    3.46       0.0  T
   2   -287.6075534 -0.316671E-05  0.251E-02    3.46       1.0  T
   3   -287.6075509  0.257101E-05  0.461E-03    3.46       1.7  T
   4   -287.6075545 -0.358989E-05  0.131E-03    3.46       6.1  T
   5   -287.6075546 -0.119743E-06  0.655E-04    3.46      12.1  T
   6   -287.6075546 -0.954236E-08  0.209E-04    3.46      38.0  T
     SCC iter.                  ...        0 min,  1.643 sec
     gradient                   ...        0 min,  0.340 sec
 * total energy  :  -285.3018020 Eh     change       -0.2828908E-03 Eh
   gradient norm :     0.0101526 Eh/α   predicted    -0.2342264E-03 ( -17.20%)
   displ. norm   :     0.3818208 α      lambda       -0.5304599E-03
   maximum displ.:     0.1530541 α      in ANC's #10, #11, #2, ...

........................................................................
.............................. CYCLE   36 ..............................
........................................................................
   1   -287.6127118 -0.287613E+03  0.367E-02    3.46       0.0  T
   2   -287.6127162 -0.441823E-05  0.223E-02    3.46       1.0  T
   3   -287.6127121  0.410742E-05  0.596E-03    3.46       1.3  T
   4   -287.6127178 -0.563359E-05  0.148E-03    3.46       5.4  T
   5   -287.6127179 -0.154055E-06  0.772E-04    3.46      10.3  T
   6   -287.6127179 -0.959290E-08  0.234E-04    3.46      34.0  T
     SCC iter.                  ...        0 min,  1.460 sec
     gradient                   ...        0 min,  0.361 sec
 * total energy  :  -285.3020921 Eh     change       -0.2901449E-03 Eh
   gradient norm :     0.0108467 Eh/α   predicted    -0.3038982E-03 (   4.74%)
   displ. norm   :     0.4423304 α      lambda       -0.5009884E-03
   maximum displ.:     0.1765555 α      in ANC's #10, #1, #2, ...

........................................................................
.............................. CYCLE   37 ..............................
........................................................................
   1   -287.6116278 -0.287612E+03  0.441E-02    3.46       0.0  T
   2   -287.6116326 -0.480385E-05  0.266E-02    3.46       1.0  T
   3   -287.6116282  0.432635E-05  0.612E-03    3.46       1.3  T
   4   -287.6116343 -0.605929E-05  0.164E-03    3.46       4.8  T
   5   -287.6116345 -0.153559E-06  0.829E-04    3.46       9.6  T
   6   -287.6116345 -0.145360E-07  0.267E-04    3.46      29.9  T
     SCC iter.                  ...        0 min,  1.503 sec
     gradient                   ...        0 min,  0.358 sec
 * total energy  :  -285.3023233 Eh     change       -0.2311680E-03 Eh
   gradient norm :     0.0139487 Eh/α   predicted    -0.2995079E-03 (  29.56%)
   displ. norm   :     0.1737667 α      lambda       -0.3265251E-03
   maximum displ.:     0.0701469 α      in ANC's #10, #8, #3, ...

........................................................................
.............................. CYCLE   38 ..............................
........................................................................
   1   -287.6121273 -0.287612E+03  0.175E-02    3.46       0.0  T
   2   -287.6121288 -0.146912E-05  0.105E-02    3.46       1.0  T
   3   -287.6121283  0.535124E-06  0.283E-03    3.46       2.8  T
   4   -287.6121292 -0.906204E-06  0.878E-04    3.46       9.1  T
   5   -287.6121292 -0.557009E-07  0.424E-04    3.46      18.8  T
     SCC iter.                  ...        0 min,  1.333 sec
     gradient                   ...        0 min,  0.346 sec
 * total energy  :  -285.3025725 Eh     change       -0.2491838E-03 Eh
   gradient norm :     0.0080647 Eh/α   predicted    -0.1681994E-03 ( -32.50%)
   displ. norm   :     0.3806746 α      lambda       -0.4224026E-03
   maximum displ.:     0.1597171 α      in ANC's #10, #8, #3, ...

........................................................................
.............................. CYCLE   39 ..............................
........................................................................
   1   -287.6119080 -0.287612E+03  0.347E-02    3.46       0.0  T
   2   -287.6119118 -0.380380E-05  0.209E-02    3.46       1.0  T
   3   -287.6119086  0.321866E-05  0.568E-03    3.46       1.4  T
   4   -287.6119131 -0.447674E-05  0.137E-03    3.46       5.8  T
   5   -287.6119132 -0.131714E-06  0.700E-04    3.46      11.4  T
   6   -287.6119132 -0.129444E-07  0.235E-04    3.46      33.8  T
     SCC iter.                  ...        0 min,  1.368 sec
     gradient                   ...        0 min,  0.361 sec
 * total energy  :  -285.3028785 Eh     change       -0.3060798E-03 Eh
   gradient norm :     0.0058817 Eh/α   predicted    -0.2418078E-03 ( -21.00%)
   displ. norm   :     0.4739480 α      lambda       -0.3712050E-03
   maximum displ.:     0.2034163 α      in ANC's #10, #8, #3, ...

........................................................................
.............................. CYCLE   40 ..............................
........................................................................
   1   -287.6111821 -0.287611E+03  0.432E-02    3.46       0.0  T
   2   -287.6111871 -0.496757E-05  0.260E-02    3.46       1.0  T
   3   -287.6111831  0.390705E-05  0.619E-03    3.46       1.3  T
   4   -287.6111887 -0.554998E-05  0.162E-03    3.46       4.9  T
   5   -287.6111888 -0.151859E-06  0.779E-04    3.46      10.2  T
   6   -287.6111889 -0.222790E-07  0.293E-04    3.46      27.2  T
     SCC iter.                  ...        0 min,  1.574 sec
     gradient                   ...        0 min,  0.362 sec
 * total energy  :  -285.3030974 Eh     change       -0.2188712E-03 Eh
   gradient norm :     0.0116921 Eh/α   predicted    -0.2272967E-03 (   3.85%)
   displ. norm   :     0.4579895 α      lambda       -0.3483451E-03
   maximum displ.:     0.1906523 α      in ANC's #10, #3, #2, ...

........................................................................
.............................. CYCLE   41 ..............................
........................................................................
   1   -287.6088255 -0.287609E+03  0.406E-02    3.46       0.0  T
   2   -287.6088292 -0.369995E-05  0.245E-02    3.46       1.0  T
   3   -287.6088247  0.450780E-05  0.619E-03    3.46       1.3  T
   4   -287.6088308 -0.603857E-05  0.142E-03    3.46       5.6  T
   5   -287.6088309 -0.874736E-07  0.709E-04    3.46      11.2  T
   6   -287.6088309 -0.141400E-07  0.231E-04    3.46      34.5  T
     SCC iter.                  ...        0 min,  1.434 sec
     gradient                   ...        0 min,  0.335 sec
 * total energy  :  -285.3032528 Eh     change       -0.1553507E-03 Eh
   gradient norm :     0.0085994 Eh/α   predicted    -0.2107104E-03 (  35.64%)
   displ. norm   :     0.2049145 α      lambda       -0.2990245E-03
   maximum displ.:     0.1117418 α      in ANC's #3, #8, #40, ...

........................................................................
.............................. CYCLE   42 ..............................
........................................................................
   1   -287.6152715 -0.287615E+03  0.227E-02    3.46       0.0  T
   2   -287.6152741 -0.264594E-05  0.137E-02    3.46       1.0  T
   3   -287.6152728  0.130506E-05  0.394E-03    3.46       2.0  T
   4   -287.6152746 -0.180568E-05  0.102E-03    3.46       7.8  T
   5   -287.6152747 -0.118773E-06  0.418E-04    3.46      19.0  T
   6   -287.6152747 -0.650425E-08  0.176E-04    3.46      45.3  T
     SCC iter.                  ...        0 min,  1.645 sec
     gradient                   ...        0 min,  0.363 sec
 * total energy  :  -285.3033820 Eh     change       -0.1292289E-03 Eh
   gradient norm :     0.0077346 Eh/α   predicted    -0.1557923E-03 (  20.56%)
   displ. norm   :     0.2503461 α      lambda       -0.2349444E-03
   maximum displ.:     0.0999298 α      in ANC's #10, #2, #3, ...
 * RMSD in coord.:     0.4854325 α      energy gain  -0.8852773E-02 Eh

generating ANC from model Hessian ...
Using Lindh-Hessian (1995)
 Shifting diagonal of input Hessian by    9.9221070513783802E-003
 Lowest  eigenvalues of input Hessian
    0.000000    0.000000    0.000000    0.000000    0.000000    0.000000
    0.010000    0.010041    0.010224    0.010247    0.010308    0.010346
    0.010497    0.010653    0.010895    0.011012    0.011065    0.011177
 Highest eigenvalues
    1.877312    1.984212    2.104245    2.113568    2.218541    2.350488


........................................................................
.............................. CYCLE   43 ..............................
........................................................................
   1   -287.6139289 -0.287614E+03  0.240E-02    3.46       0.0  T
   2   -287.6139308 -0.193582E-05  0.144E-02    3.46       1.0  T
   3   -287.6139299  0.934941E-06  0.324E-03    3.46       2.5  T
   4   -287.6139313 -0.134091E-05  0.952E-04    3.46       8.4  T
   5   -287.6139313 -0.931391E-07  0.440E-04    3.46      18.1  T
   6   -287.6139313 -0.408369E-08  0.145E-04    3.46      55.0  T
     SCC iter.                  ...        0 min,  1.640 sec
     gradient                   ...        0 min,  0.333 sec
 * total energy  :  -285.3035315 Eh     change       -0.1495186E-03 Eh
   gradient norm :     0.0062289 Eh/α   predicted     0.0000000E+00 (-100.00%)
   displ. norm   :     0.0723606 α      lambda       -0.1600422E-03
   maximum displ.:     0.0309736 α      in ANC's #4, #16, #55, ...

........................................................................
.............................. CYCLE   44 ..............................
........................................................................
   1   -287.6137781 -0.287614E+03  0.951E-03    3.46       0.0  T
   2   -287.6137786 -0.473822E-06  0.585E-03    3.46       1.4  T
   3   -287.6137782  0.332162E-06  0.193E-03    3.46       4.1  T
   4   -287.6137787 -0.487194E-06  0.451E-04    3.46      17.6  T
   5   -287.6137787 -0.156383E-07  0.225E-04    3.46      35.4  T
     SCC iter.                  ...        0 min,  1.348 sec
     gradient                   ...        0 min,  0.349 sec
 * total energy  :  -285.3036610 Eh     change       -0.1295083E-03 Eh
   gradient norm :     0.0029646 Eh/α   predicted    -0.8050075E-04 ( -37.84%)
   displ. norm   :     0.1825018 α      lambda       -0.2412967E-03
   maximum displ.:     0.0968021 α      in ANC's #4, #16, #5, ...

........................................................................
.............................. CYCLE   45 ..............................
........................................................................
   1   -287.6131742 -0.287613E+03  0.212E-02    3.46       0.0  T
   2   -287.6131766 -0.242422E-05  0.130E-02    3.46       1.0  T
   3   -287.6131751  0.152328E-05  0.431E-03    3.46       1.8  T
   4   -287.6131773 -0.226982E-05  0.103E-03    3.46       7.8  T
   5   -287.6131774 -0.809442E-07  0.488E-04    3.46      16.3  T
   6   -287.6131774 -0.827322E-08  0.179E-04    3.46      44.6  T
     SCC iter.                  ...        0 min,  1.702 sec
     gradient                   ...        0 min,  0.346 sec
 * total energy  :  -285.3038192 Eh     change       -0.1581491E-03 Eh
   gradient norm :     0.0038600 Eh/α   predicted    -0.1246675E-03 ( -21.17%)
   displ. norm   :     0.1530292 α      lambda       -0.1062159E-03
   maximum displ.:     0.0948367 α      in ANC's #4, #16, #5, ...

........................................................................
.............................. CYCLE   46 ..............................
........................................................................
   1   -287.6131161 -0.287613E+03  0.151E-02    3.45       0.0  T
   2   -287.6131171 -0.100533E-05  0.919E-03    3.46       1.0  T
   3   -287.6131164  0.706316E-06  0.285E-03    3.46       2.8  T
   4   -287.6131174 -0.103272E-05  0.696E-04    3.46      11.4  T
   5   -287.6131174 -0.315439E-07  0.332E-04    3.46      23.9  T
   6   -287.6131174 -0.423324E-08  0.122E-04    3.46      65.2  T
     SCC iter.                  ...        0 min,  1.626 sec
     gradient                   ...        0 min,  0.378 sec
 * total energy  :  -285.3039064 Eh     change       -0.8723889E-04 Eh
   gradient norm :     0.0046504 Eh/α   predicted    -0.5435263E-04 ( -37.70%)
   displ. norm   :     0.2646382 α      lambda       -0.1800196E-03
   maximum displ.:     0.1638748 α      in ANC's #4, #16, #5, ...

........................................................................
.............................. CYCLE   47 ..............................
........................................................................
   1   -287.6134740 -0.287613E+03  0.240E-02    3.45       0.0  T
   2   -287.6134761 -0.213319E-05  0.145E-02    3.46       1.0  T
   3   -287.6134741  0.196953E-05  0.449E-03    3.45       1.8  T
   4   -287.6134769 -0.275442E-05  0.103E-03    3.45       7.7  T
   5   -287.6134769 -0.603511E-07  0.517E-04    3.45      15.4  T
   6   -287.6134769 -0.839151E-08  0.183E-04    3.45      43.6  T
     SCC iter.                  ...        0 min,  1.809 sec
     gradient                   ...        0 min,  0.340 sec
 * total energy  :  -285.3040535 Eh     change       -0.1471064E-03 Eh
   gradient norm :     0.0034009 Eh/α   predicted    -0.9631626E-04 ( -34.53%)
   displ. norm   :     0.3402400 α      lambda       -0.1917830E-03
   maximum displ.:     0.2124830 α      in ANC's #4, #16, #5, ...

........................................................................
.............................. CYCLE   48 ..............................
........................................................................
   1   -287.6137111 -0.287614E+03  0.295E-02    3.45       0.0  T
   2   -287.6137139 -0.281551E-05  0.177E-02    3.45       1.0  T
   3   -287.6137106  0.336484E-05  0.551E-03    3.45       1.4  T
   4   -287.6137151 -0.448598E-05  0.115E-03    3.45       6.9  T
   5   -287.6137151 -0.727483E-07  0.598E-04    3.45      13.3  T
   6   -287.6137151 -0.878975E-08  0.201E-04    3.45      39.6  T
     SCC iter.                  ...        0 min,  1.543 sec
     gradient                   ...        0 min,  0.366 sec
 * total energy  :  -285.3042076 Eh     change       -0.1540718E-03 Eh
   gradient norm :     0.0025915 Eh/α   predicted    -0.1069946E-03 ( -30.56%)
   displ. norm   :     0.3413780 α      lambda       -0.1564749E-03
   maximum displ.:     0.2150056 α      in ANC's #4, #5, #16, ...

........................................................................
.............................. CYCLE   49 ..............................
........................................................................
   1   -287.6137937 -0.287614E+03  0.284E-02    3.44       0.0  T
   2   -287.6137961 -0.233970E-05  0.170E-02    3.45       1.0  T
   3   -287.6137926  0.350396E-05  0.532E-03    3.45       1.5  T
   4   -287.6137971 -0.450139E-05  0.100E-03    3.45       7.9  T
   5   -287.6137971 -0.542061E-07  0.534E-04    3.45      14.9  T
   6   -287.6137971 -0.556287E-08  0.171E-04    3.45      46.4  T
     SCC iter.                  ...        0 min,  1.479 sec
     gradient                   ...        0 min,  0.325 sec
 * total energy  :  -285.3043378 Eh     change       -0.1301816E-03 Eh
   gradient norm :     0.0027948 Eh/α   predicted    -0.8735723E-04 ( -32.90%)
   displ. norm   :     0.3284834 α      lambda       -0.1448552E-03
   maximum displ.:     0.2075925 α      in ANC's #4, #5, #16, ...

........................................................................
.............................. CYCLE   50 ..............................
........................................................................
   1   -287.6141032 -0.287614E+03  0.258E-02    3.44       0.0  T
   2   -287.6141050 -0.181309E-05  0.155E-02    3.45       1.0  T
   3   -287.6141018  0.322449E-05  0.487E-03    3.44       1.6  T
   4   -287.6141058 -0.404169E-05  0.837E-04    3.44       9.5  T
   5   -287.6141059 -0.375221E-07  0.454E-04    3.45      17.5  T
   6   -287.6141059 -0.343448E-08  0.144E-04    3.44      55.1  T
     SCC iter.                  ...        0 min,  1.504 sec
     gradient                   ...        0 min,  0.344 sec
 * total energy  :  -285.3044611 Eh     change       -0.1233230E-03 Eh
   gradient norm :     0.0031853 Eh/α   predicted    -0.8025316E-04 ( -34.92%)
   displ. norm   :     0.3549678 α      lambda       -0.1523766E-03
   maximum displ.:     0.2238161 α      in ANC's #4, #5, #2, ...

........................................................................
.............................. CYCLE   51 ..............................
........................................................................
   1   -287.6140924 -0.287614E+03  0.264E-02    3.44       0.0  T
   2   -287.6140942 -0.181280E-05  0.158E-02    3.44       1.0  T
   3   -287.6140907  0.346839E-05  0.491E-03    3.44       1.6  T
   4   -287.6140950 -0.429023E-05  0.815E-04    3.44       9.8  T
   5   -287.6140951 -0.362239E-07  0.439E-04    3.44      18.1  T
   6   -287.6140951 -0.321313E-08  0.143E-04    3.44      55.6  T
     SCC iter.                  ...        0 min,  1.357 sec
     gradient                   ...        0 min,  0.363 sec
 * total energy  :  -285.3045890 Eh     change       -0.1278821E-03 Eh
   gradient norm :     0.0024455 Eh/α   predicted    -0.8578924E-04 ( -32.92%)
   displ. norm   :     0.3563490 α      lambda       -0.1515921E-03
   maximum displ.:     0.2268691 α      in ANC's #4, #5, #2, ...

........................................................................
.............................. CYCLE   52 ..............................
........................................................................
   1   -287.6148590 -0.287615E+03  0.243E-02    3.43       0.0  T
   2   -287.6148608 -0.186453E-05  0.145E-02    3.44       1.0  T
   3   -287.6148574  0.340142E-05  0.486E-03    3.44       1.6  T
   4   -287.6148617 -0.422781E-05  0.807E-04    3.44       9.9  T
   5   -287.6148617 -0.355903E-07  0.407E-04    3.44      19.6  T
   6   -287.6148617 -0.385910E-08  0.160E-04    3.44      49.6  T
     SCC iter.                  ...        0 min,  1.947 sec
     gradient                   ...        0 min,  0.358 sec
 * total energy  :  -285.3047050 Eh     change       -0.1159917E-03 Eh
   gradient norm :     0.0039216 Eh/α   predicted    -0.8542373E-04 ( -26.35%)
   displ. norm   :     0.3585810 α      lambda       -0.1296347E-03
   maximum displ.:     0.2284323 α      in ANC's #4, #5, #2, ...

........................................................................
.............................. CYCLE   53 ..............................
........................................................................
   1   -287.6137262 -0.287614E+03  0.242E-02    3.43       0.0  T
   2   -287.6137279 -0.168439E-05  0.145E-02    3.44       1.0  T
   3   -287.6137252  0.267719E-05  0.435E-03    3.43       1.8  T
   4   -287.6137286 -0.335056E-05  0.815E-04    3.43       9.8  T
   5   -287.6137286 -0.423337E-07  0.433E-04    3.43      18.4  T
   6   -287.6137286 -0.315811E-08  0.150E-04    3.43      53.1  T
     SCC iter.                  ...        0 min,  1.579 sec
     gradient                   ...        0 min,  0.346 sec
 * total energy  :  -285.3047936 Eh     change       -0.8860340E-04 Eh
   gradient norm :     0.0031490 Eh/α   predicted    -0.7317944E-04 ( -17.41%)
   displ. norm   :     0.3602727 α      lambda        0.2121120E-04
   maximum displ.:     0.2295301 α      in ANC's #4, #5, #2, ...

........................................................................
.............................. CYCLE   54 ..............................
........................................................................
   1   -287.6119517 -0.287612E+03  0.244E-02    3.43       0.0  T
   2   -287.6119535 -0.179324E-05  0.146E-02    3.43       1.0  T
   3   -287.6119507  0.286564E-05  0.453E-03    3.43       1.8  T
   4   -287.6119543 -0.359447E-05  0.830E-04    3.43       9.6  T
   5   -287.6119543 -0.445997E-07  0.443E-04    3.43      18.0  T
   6   -287.6119543 -0.323774E-08  0.155E-04    3.43      51.4  T
     SCC iter.                  ...        0 min,  1.694 sec
     gradient                   ...        0 min,  0.363 sec
 * total energy  :  -285.3047912 Eh     change        0.2358480E-05 Eh
   gradient norm :     0.0084161 Eh/α   predicted     0.1198130E-04 ( 408.01%)
   displ. norm   :     0.0857186 α      lambda       -0.1312071E-03
   maximum displ.:     0.0340610 α      in ANC's #8, #4, #11, ...

........................................................................
.............................. CYCLE   55 ..............................
........................................................................
   1   -287.6142230 -0.287614E+03  0.109E-02    3.43       0.0  T
   2   -287.6142236 -0.603858E-06  0.649E-03    3.43       1.2  T
   3   -287.6142229  0.628340E-06  0.245E-03    3.43       3.3  T
   4   -287.6142238 -0.845299E-06  0.516E-04    3.43      15.4  T
   5   -287.6142238 -0.134976E-07  0.178E-04    3.43      44.8  T
     SCC iter.                  ...        0 min,  1.255 sec
     gradient                   ...        0 min,  0.341 sec
 * total energy  :  -285.3048758 Eh     change       -0.8457114E-04 Eh
   gradient norm :     0.0028819 Eh/α   predicted    -0.6609240E-04 ( -21.85%)
   displ. norm   :     0.1196851 α      lambda       -0.7685638E-04
   maximum displ.:     0.0649582 α      in ANC's #4, #8, #11, ...

........................................................................
.............................. CYCLE   56 ..............................
........................................................................
   1   -287.6151984 -0.287615E+03  0.100E-02    3.43       0.0  T
   2   -287.6151987 -0.283847E-06  0.599E-03    3.43       1.3  T
   3   -287.6151982  0.499996E-06  0.194E-03    3.43       4.1  T
   4   -287.6151988 -0.624452E-06  0.333E-04    3.43      23.9  T
   5   -287.6151988 -0.488939E-08  0.154E-04    3.43      51.8  T
     SCC iter.                  ...        0 min,  1.449 sec
     gradient                   ...        0 min,  0.348 sec
 * total energy  :  -285.3049409 Eh     change       -0.6512694E-04 Eh
   gradient norm :     0.0027671 Eh/α   predicted    -0.3899384E-04 ( -40.13%)
   displ. norm   :     0.2857854 α      lambda       -0.1619926E-03
   maximum displ.:     0.1471974 α      in ANC's #4, #8, #11, ...

........................................................................
.............................. CYCLE   57 ..............................
........................................................................
   1   -287.6159470 -0.287616E+03  0.241E-02    3.43       0.0  T
   2   -287.6159483 -0.120865E-05  0.144E-02    3.43       1.0  T
   3   -287.6159460  0.221151E-05  0.401E-03    3.43       2.0  T
   4   -287.6159488 -0.274246E-05  0.727E-04    3.43      10.9  T
   5   -287.6159488 -0.232957E-07  0.362E-04    3.43      22.0  T
   6   -287.6159488 -0.341703E-08  0.130E-04    3.43      61.2  T
     SCC iter.                  ...        0 min,  1.555 sec
     gradient                   ...        0 min,  0.346 sec
 * total energy  :  -285.3050605 Eh     change       -0.1195901E-03 Eh
   gradient norm :     0.0043811 Eh/α   predicted    -0.8761407E-04 ( -26.74%)
   displ. norm   :     0.3353093 α      lambda       -0.1119860E-03
   maximum displ.:     0.2004362 α      in ANC's #4, #8, #11, ...

........................................................................
.............................. CYCLE   58 ..............................
........................................................................
   1   -287.6152332 -0.287615E+03  0.248E-02    3.43       0.0  T
   2   -287.6152345 -0.131699E-05  0.148E-02    3.43       1.0  T
   3   -287.6152317  0.280342E-05  0.442E-03    3.43       1.8  T
   4   -287.6152351 -0.346922E-05  0.752E-04    3.43      10.6  T
   5   -287.6152352 -0.200801E-07  0.396E-04    3.43      20.1  T
   6   -287.6152352 -0.360154E-08  0.140E-04    3.43      56.6  T
     SCC iter.                  ...        0 min,  1.469 sec
     gradient                   ...        0 min,  0.372 sec
 * total energy  :  -285.3051489 Eh     change       -0.8836875E-04 Eh
   gradient norm :     0.0038657 Eh/α   predicted    -0.6229791E-04 ( -29.50%)
   displ. norm   :     0.3152639 α      lambda       -0.8602837E-04
   maximum displ.:     0.2000165 α      in ANC's #4, #8, #6, ...

........................................................................
.............................. CYCLE   59 ..............................
........................................................................
   1   -287.6143196 -0.287614E+03  0.219E-02    3.43       0.0  T
   2   -287.6143207 -0.112233E-05  0.131E-02    3.43       1.0  T
   3   -287.6143183  0.245519E-05  0.410E-03    3.43       1.9  T
   4   -287.6143213 -0.305016E-05  0.685E-04    3.43      11.6  T
   5   -287.6143213 -0.158386E-07  0.373E-04    3.43      21.3  T
   6   -287.6143213 -0.279618E-08  0.131E-04    3.43      60.9  T
     SCC iter.                  ...        0 min,  1.564 sec
     gradient                   ...        0 min,  0.371 sec
 * total energy  :  -285.3052189 Eh     change       -0.7001873E-04 Eh
   gradient norm :     0.0021285 Eh/α   predicted    -0.4729442E-04 ( -32.45%)
   displ. norm   :     0.2797771 α      lambda       -0.6603044E-04
   maximum displ.:     0.1837526 α      in ANC's #4, #8, #2, ...

........................................................................
.............................. CYCLE   60 ..............................
........................................................................
   1   -287.6137562 -0.287614E+03  0.191E-02    3.43       0.0  T
   2   -287.6137571 -0.984724E-06  0.114E-02    3.43       1.0  T
   3   -287.6137550  0.216611E-05  0.385E-03    3.43       2.1  T
   4   -287.6137577 -0.269193E-05  0.605E-04    3.43      13.2  T
   5   -287.6137577 -0.134731E-07  0.331E-04    3.43      24.0  T
   6   -287.6137577 -0.197764E-08  0.120E-04    3.43      66.2  T
     SCC iter.                  ...        0 min,  1.968 sec
     gradient                   ...        0 min,  0.371 sec
 * total energy  :  -285.3052724 Eh     change       -0.5352737E-04 Eh
   gradient norm :     0.0020929 Eh/α   predicted    -0.3560459E-04 ( -33.48%)
   displ. norm   :     0.2394081 α      lambda       -0.4904422E-04
   maximum displ.:     0.1608200 α      in ANC's #4, #8, #2, ...

........................................................................
.............................. CYCLE   61 ..............................
........................................................................
   1   -287.6137023 -0.287614E+03  0.165E-02    3.42       0.0  T
   2   -287.6137031 -0.775630E-06  0.987E-03    3.43       1.0  T
   3   -287.6137014  0.172960E-05  0.344E-03    3.42       2.3  T
   4   -287.6137035 -0.214549E-05  0.521E-04    3.43      15.3  T
   5   -287.6137035 -0.101930E-07  0.280E-04    3.43      28.4  T
   6   -287.6137035 -0.138448E-08  0.104E-04    3.43      76.2  T
     SCC iter.                  ...        0 min,  1.418 sec
     gradient                   ...        0 min,  0.313 sec
 * total energy  :  -285.3053119 Eh     change       -0.3951131E-04 Eh
   gradient norm :     0.0026301 Eh/α   predicted    -0.2593653E-04 ( -34.36%)
   displ. norm   :     0.2133743 α      lambda       -0.3824136E-04
   maximum displ.:     0.1452717 α      in ANC's #4, #8, #2, ...

........................................................................
.............................. CYCLE   62 ..............................
........................................................................
   1   -287.6139524 -0.287614E+03  0.152E-02    3.42       0.0  T
   2   -287.6139530 -0.613356E-06  0.911E-03    3.43       1.0  T
   3   -287.6139516  0.141577E-05  0.309E-03    3.42       2.6  T
   4   -287.6139534 -0.174770E-05  0.471E-04    3.42      16.9  T
   5   -287.6139534 -0.759223E-08  0.250E-04    3.42      31.8  T
   6   -287.6139534 -0.112010E-08  0.940E-05    3.42      84.6  T
     SCC iter.                  ...        0 min,  1.609 sec
     gradient                   ...        0 min,  0.356 sec
 * total energy  :  -285.3053423 Eh     change       -0.3037315E-04 Eh
   gradient norm :     0.0024377 Eh/α   predicted    -0.1999512E-04 ( -34.17%)
   displ. norm   :     0.1953320 α      lambda       -0.2989396E-04
   maximum displ.:     0.1342183 α      in ANC's #4, #8, #2, ...

........................................................................
.............................. CYCLE   63 ..............................
........................................................................
   1   -287.6144159 -0.287614E+03  0.144E-02    3.42       0.0  T
   2   -287.6144164 -0.466507E-06  0.863E-03    3.42       1.0  T
   3   -287.6144154  0.105275E-05  0.265E-03    3.42       3.0  T
   4   -287.6144167 -0.130035E-05  0.442E-04    3.42      18.0  T
   5   -287.6144167 -0.600443E-08  0.230E-04    3.42      34.6  T
   6   -287.6144167 -0.102187E-08  0.864E-05    3.42      92.1  T
     SCC iter.                  ...        0 min,  1.671 sec
     gradient                   ...        0 min,  0.383 sec
 * total energy  :  -285.3053650 Eh     change       -0.2270331E-04 Eh
   gradient norm :     0.0017721 Eh/α   predicted    -0.1551973E-04 ( -31.64%)
   displ. norm   :     0.2379334 α      lambda       -0.1971176E-04
   maximum displ.:     0.1640533 α      in ANC's #4, #8, #2, ...

........................................................................
.............................. CYCLE   64 ..............................
........................................................................
   1   -287.6148949 -0.287615E+03  0.182E-02    3.42       0.0  T
   2   -287.6148956 -0.668910E-06  0.109E-02    3.42       1.0  T
   3   -287.6148942  0.136426E-05  0.306E-03    3.42       2.6  T
   4   -287.6148959 -0.170359E-05  0.562E-04    3.42      14.2  T
   5   -287.6148960 -0.962314E-08  0.288E-04    3.42      27.6  T
   6   -287.6148960 -0.182848E-08  0.110E-04    3.42      72.1  T
     SCC iter.                  ...        0 min,  1.212 sec
     gradient                   ...        0 min,  0.342 sec
 * total energy  :  -285.3053831 Eh     change       -0.1807921E-04 Eh
   gradient norm :     0.0009486 Eh/α   predicted    -0.1010634E-04 ( -44.10%)
   displ. norm   :     0.0788662 α      lambda       -0.8035106E-05
   maximum displ.:     0.0503986 α      in ANC's #4, #7, #2, ...

........................................................................
.............................. CYCLE   65 ..............................
........................................................................
   1   -287.6153153 -0.287615E+03  0.652E-03    3.42       0.0  T
   2   -287.6153154 -0.765745E-07  0.393E-03    3.42       2.0  T
[...]
                            94 H    0.944
    84   6 C    3.958 --    89 O    1.000    83 C    0.988    96 H    0.968
                            95 H    0.958
    85   8 O    1.965 --    80 C    0.998    97 H    0.869
    86   8 O    1.955 --    81 C    1.003    98 H    0.871
    87   8 O    2.110 --    58 C    0.982    82 C    0.966
    88   8 O    2.092 --    79 C    0.983    83 C    0.959
    89   8 O    1.951 --    84 C    1.000    99 H    0.896
    90   1 H    0.996 --    79 C    0.947
    91   1 H    0.998 --    80 C    0.956
    92   1 H    0.997 --    81 C    0.952
    93   1 H    0.998 --    82 C    0.956
    94   1 H    0.997 --    83 C    0.944
    95   1 H    0.997 --    84 C    0.958
    96   1 H    0.998 --    84 C    0.968
    97   1 H    0.890 --    85 O    0.869
    98   1 H    0.894 --    86 O    0.871
    99   1 H    0.910 --    89 O    0.896
   100   6 C    3.926 --   108 O    0.990   122 O    0.969   101 C    0.952
                           109 H    0.943
   101   6 C    3.959 --   105 O    0.994   102 C    0.972   110 H    0.957
                           100 C    0.952
   102   6 C    3.962 --   106 O    1.001   101 C    0.972   103 C    0.959
                           111 H    0.956
   103   6 C    3.944 --   107 O    0.966   104 C    0.965   102 C    0.959
                             1 H    0.958
   104   6 C    3.942 --   144 C    0.974   103 C    0.965   108 O    0.960
                           145 H    0.957
   105   8 O    1.989 --   101 C    0.994   112 H    0.869
   106   8 O    1.953 --   102 C    1.001   113 H    0.852
   107   8 O    2.092 --    79 C    0.972   103 C    0.966
   108   8 O    2.095 --   100 C    0.990   104 C    0.960
   109   1 H    0.994 --   100 C    0.943
   110   1 H    0.998 --   101 C    0.957
   111   1 H    0.998 --   102 C    0.956
   112   1 H    0.890 --   105 O    0.869
   113   1 H    0.890 --   106 O    0.852
   114   6 C    3.928 --    10 O    0.982   123 O    0.975   115 C    0.956
                           125 H    0.944
   115   6 C    3.962 --   120 O    0.999   116 C    0.970   126 H    0.956
                           114 C    0.956
   116   6 C    3.965 --   121 O    1.005   115 C    0.970   117 C    0.968
                           127 H    0.951
   117   6 C    3.942 --   116 C    0.968   118 C    0.963   122 O    0.962
                           128 H    0.958
   118   6 C    3.937 --   119 C    0.973   117 C    0.963   123 O    0.957
                           129 H    0.957
   119   6 C    3.960 --   124 O    1.020   118 C    0.973   130 H    0.968
                           131 H    0.965
   120   8 O    1.963 --   115 C    0.999   132 H    0.872
   121   8 O    1.939 --   116 C    1.005   133 H    0.833
   122   8 O    2.085 --   100 C    0.969   117 C    0.962
   123   8 O    2.085 --   114 C    0.975   118 C    0.957
   124   8 O    1.973 --   119 C    1.020   134 H    0.872
   125   1 H    0.997 --   114 C    0.944
   126   1 H    0.998 --   115 C    0.956
   127   1 H    0.997 --   116 C    0.951
   128   1 H    0.998 --   117 C    0.958
   129   1 H    0.997 --   118 C    0.957
   130   1 H    0.996 --   119 C    0.968
   131   1 H    0.998 --   119 C    0.965
   132   1 H    0.891 --   120 O    0.872
   133   1 H    0.892 --   121 O    0.833
   134   1 H    0.903 --   124 O    0.872
   135   6 C    3.962 --   142 C    1.386   136 C    1.259   137 N    1.117
   136   6 C    3.959 --   143 C    1.388   135 C    1.259   138 N    1.113
   137   7 N    3.512 --   135 C    1.117   139 C    1.075   144 C    1.006
                           151 N    0.132
   138   7 N    3.532 --   139 C    1.136   136 C    1.113    46 C    0.987
                           151 N    0.110
   139   6 C    3.955 --   151 N    1.638   138 N    1.136   137 N    1.075
   140   1 H    0.994 --    46 C    0.960
   141   1 H    0.994 --    46 C    0.953
   142   6 C    3.986 --   154 C    1.418   135 C    1.386   158 H    0.962
   143   6 C    3.985 --   153 C    1.422   136 C    1.388   156 H    0.963
   144   6 C    3.971 --   137 N    1.006   104 C    0.974   146 H    0.961
                           147 H    0.951
   145   1 H    0.997 --   104 C    0.957
   146   1 H    0.993 --   144 C    0.961
   147   1 H    0.993 --   144 C    0.951
   148   8 O    1.952 --    25 C    1.002   150 H    0.865
   149   1 H    0.997 --    25 C    0.953
   150   1 H    0.893 --   148 O    0.865
   151   7 N    2.931 --   139 C    1.638   152 H    0.937   137 N    0.132
                           138 N    0.110
   152   1 H    0.981 --   151 N    0.937
   153   6 C    3.982 --   154 C    1.441   143 C    1.422   155 H    0.971
   154   6 C    3.981 --   153 C    1.441   142 C    1.418   157 H    0.971
   155   1 H    0.998 --   153 C    0.971
   156   1 H    0.996 --   143 C    0.963
   157   1 H    0.998 --   154 C    0.971
   158   1 H    0.997 --   142 C    0.962
 ---------------------------------------------------------------------------

Topologies differ in total number of bonds
Writing topology from bond orders to xtbtopo.mol

molecular dipole:
                 x           y           z       tot (Debye)
 q only:       -0.534       0.315       0.764
   full:       -1.005       0.420       1.160       4.044
molecular quadrupole (traceless):
                xx          xy          yy          xz          yz          zz
 q only:       92.734      24.053     -38.241     -23.132     -70.407     -54.493
  q+dip:      166.357      64.999     -68.827     -28.239     -97.409     -97.530
   full:      163.027      63.396     -68.355     -26.303     -99.050     -94.671

           -------------------------------------------------
          |                Geometry Summary                 |
           -------------------------------------------------

      molecular mass/u    :     1232.1062058
   center of mass at/Å    :      -26.2337484     -29.4086780     -13.5197740
  moments of inertia/u·Å² :        0.1913234E+05   0.2558401E+05   0.3463686E+05
rotational constants/cm⁻¹ :        0.8811068E-03   0.6589129E-03   0.4866963E-03

 * 162 selected distances

     #   Z          #   Z                                           value/Å
     2   6 C        3   6 C                                       1.5390766
     3   6 C        4   6 C                                       1.5304678
     4   6 C        5   6 C                                       1.5383166
     5   6 C        6   6 C                                       1.5364014
     6   6 C        7   6 C                                       1.5302373
     3   6 C        8   8 O                                       1.4036267
     4   6 C        9   8 O                                       1.4041507
     5   6 C       10   8 O                                       1.4128734
     2   6 C       11   8 O                                       1.4034985
     6   6 C       11   8 O                                       1.4216832
     7   6 C       12   8 O                                       1.4168691
     2   6 C       13   1 H                                       1.0987445
     3   6 C       14   1 H                                       1.1004540
     4   6 C       15   1 H                                       1.1012694
     5   6 C       16   1 H                                       1.0984588
     6   6 C       17   1 H                                       1.0988165
     7   6 C       18   1 H                                       1.0954048
     7   6 C       19   1 H                                       1.0962456
     8   8 O       20   1 H                                       0.9666359
     9   8 O       21   1 H                                       0.9728254
    12   8 O       22   1 H                                       0.9645556
    23   6 C       24   6 C                                       1.5382455
    24   6 C       25   6 C                                       1.5254539
    25   6 C       26   6 C                                       1.5360674
    26   6 C       27   6 C                                       1.5405542
    24   6 C       29   8 O                                       1.4041759
     2   6 C       30   8 O                                       1.3906033
    26   6 C       30   8 O                                       1.4176465
    23   6 C       31   8 O                                       1.3979621
    27   6 C       31   8 O                                       1.4217708
    28   6 C       32   8 O                                       1.3995379
    23   6 C       33   1 H                                       1.0974042
    24   6 C       34   1 H                                       1.1014177
    26   6 C       35   1 H                                       1.0990175
    27   6 C       36   1 H                                       1.1003131
    28   6 C       37   1 H                                       1.0942093
    28   6 C       38   1 H                                       1.0927655
    29   8 O       39   1 H                                       0.9666988
    32   8 O       40   1 H                                       0.9732738
    41   6 C       42   6 C                                       1.5413118
    42   6 C       43   6 C                                       1.5291516
    43   6 C       44   6 C                                       1.5389054
    44   6 C       45   6 C                                       1.5416999 (max)
    45   6 C       46   6 C                                       1.5255150
    42   6 C       47   8 O                                       1.4078430
    43   6 C       48   8 O                                       1.4074287
    23   6 C       49   8 O                                       1.4026616
    44   6 C       49   8 O                                       1.4183229
    41   6 C       50   8 O                                       1.3975894
    45   6 C       50   8 O                                       1.4276630
    41   6 C       51   1 H                                       1.0961107
    42   6 C       52   1 H                                       1.1002246
    43   6 C       53   1 H                                       1.1001046
    44   6 C       54   1 H                                       1.0988555
    45   6 C       55   1 H                                       1.0951444
    47   8 O       56   1 H                                       0.9676859
    48   8 O       57   1 H                                       0.9717519
    58   6 C       59   6 C                                       1.5345353
    59   6 C       60   6 C                                       1.5288032
    60   6 C       61   6 C                                       1.5387667
    62   6 C       63   6 C                                       1.5368505
    59   6 C       64   8 O                                       1.4029161
    60   6 C       65   8 O                                       1.4062643
    41   6 C       66   8 O                                       1.3989938
    61   6 C       66   8 O                                       1.4165244
    58   6 C       67   8 O                                       1.3997708
    62   6 C       67   8 O                                       1.4266990
    63   6 C       68   8 O                                       1.3959046
    58   6 C       69   1 H                                       1.1002735
    59   6 C       70   1 H                                       1.1011484
    60   6 C       71   1 H                                       1.1019307
    61   6 C       72   1 H                                       1.0981590
    62   6 C       73   1 H                                       1.0986440
    63   6 C       74   1 H                                       1.0940300
    63   6 C       75   1 H                                       1.0996493
    64   8 O       76   1 H                                       0.9667004
    65   8 O       77   1 H                                       0.9736965
    68   8 O       78   1 H                                       0.9670500
    79   6 C       80   6 C                                       1.5352006
    80   6 C       81   6 C                                       1.5252927
    81   6 C       82   6 C                                       1.5401823
    83   6 C       84   6 C                                       1.5293444
    80   6 C       85   8 O                                       1.4048927
    81   6 C       86   8 O                                       1.4048831
    58   6 C       87   8 O                                       1.3925961
    82   6 C       87   8 O                                       1.4163684
    79   6 C       88   8 O                                       1.3944073
    83   6 C       88   8 O                                       1.4218986
    84   6 C       89   8 O                                       1.4124303
    79   6 C       90   1 H                                       1.0966551
    80   6 C       91   1 H                                       1.1009692
    81   6 C       92   1 H                                       1.1013665
    82   6 C       93   1 H                                       1.1004657
    83   6 C       94   1 H                                       1.0976116
    84   6 C       95   1 H                                       1.0939633
    84   6 C       96   1 H                                       1.0969688
    85   8 O       97   1 H                                       0.9667113
    86   8 O       98   1 H                                       0.9681077
    89   8 O       99   1 H                                       0.9629831 (min)
   101   6 C      102   6 C                                       1.5296759
     1   1 H      103   6 C                                       1.0986147
   102   6 C      103   6 C                                       1.5400390
   103   6 C      104   6 C                                       1.5385622
   101   6 C      105   8 O                                       1.4068001
   102   6 C      106   8 O                                       1.4067632
    79   6 C      107   8 O                                       1.4060752
   103   6 C      107   8 O                                       1.4151265
   100   6 C      108   8 O                                       1.3947819
   104   6 C      108   8 O                                       1.4243422
   100   6 C      109   1 H                                       1.0961828
   101   6 C      110   1 H                                       1.1004949
   102   6 C      111   1 H                                       1.1003231
   105   8 O      112   1 H                                       0.9687651
   106   8 O      113   1 H                                       0.9716431
    10   8 O      114   6 C                                       1.3935192
   114   6 C      115   6 C                                       1.5314418
   115   6 C      116   6 C                                       1.5295513
   116   6 C      117   6 C                                       1.5372541
   118   6 C      119   6 C                                       1.5390998
   115   6 C      120   8 O                                       1.4052968
   116   6 C      121   8 O                                       1.4050715
   100   6 C      122   8 O                                       1.4059679
   117   6 C      122   8 O                                       1.4213746
   114   6 C      123   8 O                                       1.3985477
   118   6 C      123   8 O                                       1.4248132
   119   6 C      124   8 O                                       1.3933413
   114   6 C      125   1 H                                       1.0989746
   115   6 C      126   1 H                                       1.1003239
   116   6 C      127   1 H                                       1.1017361
   117   6 C      128   1 H                                       1.0972386
   118   6 C      129   1 H                                       1.1007602
   119   6 C      130   1 H                                       1.0934327
   119   6 C      131   1 H                                       1.0998037
   120   8 O      132   1 H                                       0.9672008
   121   8 O      133   1 H                                       0.9749023
   124   8 O      134   1 H                                       0.9676521
   135   6 C      136   6 C                                       1.4053485
   135   6 C      137   7 N                                       1.3770184
    46   6 C      138   7 N                                       1.4489230
   136   6 C      138   7 N                                       1.3827331
   137   7 N      139   6 C                                       1.4005469
   138   7 N      139   6 C                                       1.3780599
    46   6 C      140   1 H                                       1.0965555
    46   6 C      141   1 H                                       1.0946949
   135   6 C      142   6 C                                       1.3804049
   136   6 C      143   6 C                                       1.3814254
   104   6 C      144   6 C                                       1.5388097
   137   7 N      144   6 C                                       1.4344439
   104   6 C      145   1 H                                       1.0982336
   144   6 C      146   1 H                                       1.0924512
   144   6 C      147   1 H                                       1.0918121
    25   6 C      148   8 O                                       1.4058781
    25   6 C      149   1 H                                       1.1013115
   148   8 O      150   1 H                                       0.9704717
   139   6 C      151   7 N                                       1.2709941
   143   6 C      153   6 C                                       1.3900577
   142   6 C      154   6 C                                       1.3906623
   153   6 C      154   6 C                                       1.3865899
   153   6 C      155   1 H                                       1.0796838
   143   6 C      156   1 H                                       1.0767915
   154   6 C      157   1 H                                       1.0797578
   142   6 C      158   1 H                                       1.0782411

 * 5 distinct bonds (by element types)

   Z      Z             #   av. dist./Å        max./Å        min./Å
   1 H    6 C          53     1.0966833     1.1019307     1.0767915
   6 C    6 C          36     1.5105362     1.5416999     1.3804049
   6 C    7 N           7     1.3846742     1.4489230     1.2709941
   1 H    8 O          19     0.9689111     0.9749023     0.9629831
   6 C    8 O          47     1.4076203     1.4276630     1.3906033


optimized geometry written to: xtbopt.xyz


           -------------------------------------------------
          | TOTAL ENERGY             -285.305413847273 Eh   |
          | GRADIENT NORM               0.000419136951 Eh/α |
          | HOMO-LUMO GAP               3.421344671851 eV   |
           -------------------------------------------------

------------------------------------------------------------------------
 * finished run on 2022/03/02 at 03:00:38.193     
------------------------------------------------------------------------
 total:
 * wall-time:     0 d,  0 h,  2 min, 27.888 sec
 *  cpu-time:     0 d,  3 h, 39 min, 50.902 sec
 * ratio c/w:    89.195 speedup
 SCF:
 * wall-time:     0 d,  0 h,  0 min,  3.806 sec
 *  cpu-time:     0 d,  0 h,  5 min, 46.771 sec
 * ratio c/w:    91.110 speedup
 ANC optimizer:
 * wall-time:     0 d,  0 h,  2 min, 23.860 sec
 *  cpu-time:     0 d,  3 h, 33 min, 48.504 sec
 * ratio c/w:    89.173 speedup

