
                                 *****************
                                 * O   R   C   A *
                                 *****************

                                            #,                                       
                                            ###                                      
                                            ####                                     
                                            #####                                    
                                            ######                                   
                                           ########,                                 
                                     ,,################,,,,,                         
                               ,,#################################,,                 
                          ,,##########################################,,             
                       ,#########################################, ''#####,          
                    ,#############################################,,   '####,        
                  ,##################################################,,,,####,       
                ,###########''''           ''''###############################       
              ,#####''   ,,,,##########,,,,          '''####'''          '####       
            ,##' ,,,,###########################,,,                        '##       
           ' ,,###''''                  '''############,,,                           
         ,,##''                                '''############,,,,        ,,,,,,###''
      ,#''                                            '''#######################'''  
     '                                                          ''''####''''         
             ,#######,   #######,   ,#######,      ##                                
            ,#'     '#,  ##    ##  ,#'     '#,    #''#        ######   ,####,        
            ##       ##  ##   ,#'  ##            #'  '#       #        #'  '#        
            ##       ##  #######   ##           ,######,      #####,   #    #        
            '#,     ,#'  ##    ##  '#,     ,#' ,#      #,         ##   #,  ,#        
             '#######'   ##     ##  '#######'  #'      '#     #####' # '####'        



                  #######################################################
                  #                        -***-                        #
                  #          Department of theory and spectroscopy      #
                  #    Directorship and core code : Frank Neese         #
                  #        Max Planck Institute fuer Kohlenforschung    #
                  #                Kaiser Wilhelm Platz 1               #
                  #                 D-45470 Muelheim/Ruhr               #
                  #                      Germany                        #
                  #                                                     #
                  #                  All rights reserved                #
                  #                        -***-                        #
                  #######################################################


                         Program Version 5.0.1 -  RELEASE  -


 With contributions from (in alphabetic order):
   Daniel Aravena         : Magnetic Suceptibility
   Michael Atanasov       : Ab Initio Ligand Field Theory (pilot matlab implementation)
   Alexander A. Auer      : GIAO ZORA, VPT2 properties, NMR spectrum
   Ute Becker             : Parallelization
   Giovanni Bistoni       : ED, misc. LED, open-shell LED, HFLD
   Martin Brehm           : Molecular dynamics
   Dmytro Bykov           : SCF Hessian
   Vijay G. Chilkuri      : MRCI spin determinant printing, contributions to CSF-ICE
   Dipayan Datta          : RHF DLPNO-CCSD density
   Achintya Kumar Dutta   : EOM-CC, STEOM-CC
   Dmitry Ganyushin       : Spin-Orbit,Spin-Spin,Magnetic field MRCI
   Miquel Garcia          : C-PCM and meta-GGA Hessian, CC/C-PCM, Gaussian charge scheme
   Yang Guo               : DLPNO-NEVPT2, F12-NEVPT2, CIM, IAO-localization
   Andreas Hansen         : Spin unrestricted coupled pair/coupled cluster methods
   Benjamin Helmich-Paris : MC-RPA, TRAH-SCF, COSX integrals
   Lee Huntington         : MR-EOM, pCC
   Robert Izsak           : Overlap fitted RIJCOSX, COSX-SCS-MP3, EOM
   Marcus Kettner         : VPT2
   Christian Kollmar      : KDIIS, OOCD, Brueckner-CCSD(T), CCSD density, CASPT2, CASPT2-K
   Simone Kossmann        : Meta GGA functionals, TD-DFT gradient, OOMP2, MP2 Hessian
   Martin Krupicka        : Initial AUTO-CI
   Lucas Lang             : DCDCAS
   Marvin Lechner         : AUTO-CI (C++ implementation), FIC-MRCC
   Dagmar Lenk            : GEPOL surface, SMD
   Dimitrios Liakos       : Extrapolation schemes; Compound Job, initial MDCI parallelization
   Dimitrios Manganas     : Further ROCIS development; embedding schemes
   Dimitrios Pantazis     : SARC Basis sets
   Anastasios Papadopoulos: AUTO-CI, single reference methods and gradients
   Taras Petrenko         : DFT Hessian,TD-DFT gradient, ASA, ECA, R-Raman, ABS, FL, XAS/XES, NRVS
   Peter Pinski           : DLPNO-MP2, DLPNO-MP2 Gradient
   Christoph Reimann      : Effective Core Potentials
   Marius Retegan         : Local ZFS, SOC
   Christoph Riplinger    : Optimizer, TS searches, QM/MM, DLPNO-CCSD(T), (RO)-DLPNO pert. Triples
   Tobias Risthaus        : Range-separated hybrids, TD-DFT gradient, RPA, STAB
   Michael Roemelt        : Original ROCIS implementation
   Masaaki Saitow         : Open-shell DLPNO-CCSD energy and density
   Barbara Sandhoefer     : DKH picture change effects
   Avijit Sen             : IP-ROCIS
   Kantharuban Sivalingam : CASSCF convergence, NEVPT2, FIC-MRCI
   Bernardo de Souza      : ESD, SOC TD-DFT
   Georgi Stoychev        : AutoAux, RI-MP2 NMR, DLPNO-MP2 response
   Willem Van den Heuvel  : Paramagnetic NMR
   Boris Wezisla          : Elementary symmetry handling
   Frank Wennmohs         : Technical directorship


 We gratefully acknowledge several colleagues who have allowed us to
 interface, adapt or use parts of their codes:
   Stefan Grimme, W. Hujo, H. Kruse, P. Pracht,  : VdW corrections, initial TS optimization,
                  C. Bannwarth, S. Ehlert          DFT functionals, gCP, sTDA/sTD-DF
   Ed Valeev, F. Pavosevic, A. Kumar             : LibInt (2-el integral package), F12 methods
   Garnet Chan, S. Sharma, J. Yang, R. Olivares  : DMRG
   Ulf Ekstrom                                   : XCFun DFT Library
   Mihaly Kallay                                 : mrcc  (arbitrary order and MRCC methods)
   Jiri Pittner, Ondrej Demel                    : Mk-CCSD
   Frank Weinhold                                : gennbo (NPA and NBO analysis)
   Christopher J. Cramer and Donald G. Truhlar   : smd solvation model
   Lars Goerigk                                  : TD-DFT with DH, B97 family of functionals
   V. Asgeirsson, H. Jonsson                     : NEB implementation
   FAccTs GmbH                                   : IRC, NEB, NEB-TS, DLPNO-Multilevel, CI-OPT
                                                   MM, QMMM, 2- and 3-layer-ONIOM, Crystal-QMMM,
                                                   LR-CPCM, SF, NACMEs, symmetry and pop. for TD-DFT,
                                                   nearIR, NL-DFT gradient (VV10), updates on ESD,
                                                   ML-optimized integration grids
   S Lehtola, MJT Oliveira, MAL Marques          : LibXC Library
   Liviu Ungur et al                             : ANISO software


 Your calculation uses the libint2 library for the computation of 2-el integrals
 For citations please refer to: http://libint.valeyev.net

 Your ORCA version has been built with support for libXC version: 5.1.0
 For citations please refer to: https://tddft.org/programs/libxc/

 This ORCA versions uses:
   CBLAS   interface :  Fast vector & matrix operations
   LAPACKE interface :  Fast linear algebra routines
   SCALAPACK package :  Parallel linear algebra routines
   Shared memory     :  Shared parallel matrices
   BLAS/LAPACK       :  OpenBLAS 0.3.15  USE64BITINT DYNAMIC_ARCH NO_AFFINITY SkylakeX SINGLE_THREADED
        Core in use  :  SkylakeX
   Copyright (c) 2011-2014, The OpenBLAS Project


================================================================================

----- Orbital basis set information -----
Your calculation utilizes the basis: def2-SVP
   F. Weigend and R. Ahlrichs, Phys. Chem. Chem. Phys. 7, 3297 (2005).

================================================================================
                                        WARNINGS
                       Please study these warnings very carefully!
================================================================================


INFO   : the flag for use of the SHARK integral package has been found!

================================================================================
                                       INPUT FILE
================================================================================
NAME = bBiCyDNH_orca.inp
|  1> ! Freq
|  2> %output 
|  3> xyzfile=True 
|  4> end 
|  5> %scf 
|  6> maxiter 250 
|  7> end
|  8> %output
|  9> Print[P_Hirshfeld] = 1
| 10> end
| 11> % maxcore
| 12> 4000
| 13> %pal nprocs 96
| 14> end
| 15> *xyz 0 1
| 16> H   -31.68210169 -29.81907019 -13.47406073
| 17> C   -21.52248312 -27.35305765 -9.46202330 
| 18> C   -21.94602194 -28.16854683 -8.24945592 
| 19> C   -23.45806046 -28.29457257 -8.20958302 
| 20> C   -24.14340772 -26.93859824 -8.34518961 
| 21> C   -23.55650684 -26.13816986 -9.50971880 
| 22> C   -24.03013818 -24.70228302 -9.55843540 
| 23> O   -21.33425425 -29.41982110 -8.30389522 
| 24> O   -23.79032627 -28.92469251 -7.01545643 
| 25> O   -25.50201071 -27.20287469 -8.57255186 
| 26> O   -22.15352915 -26.11925964 -9.40830894 
| 27> O   -23.75013608 -24.17550208 -10.82659866
| 28> H   -20.45207726 -27.15485979 -9.43078961 
| 29> H   -21.61858390 -27.62442028 -7.35878668 
| 30> H   -23.76721866 -28.89859926 -9.06595687 
| 31> H   -24.01492556 -26.38684703 -7.40938787 
| 32> H   -23.85893455 -26.62701966 -10.43574024
| 33> H   -25.10080020 -24.66709908 -9.36019962 
| 34> H   -23.50980572 -24.13855779 -8.78005661 
| 35> H   -21.68680977 -29.95923694 -7.60986932 
| 36> H   -24.73526488 -28.98737597 -6.92253032 
| 37> H   -23.85497727 -23.23735610 -10.82291033
| 38> C   -20.89959191 -29.03395198 -14.44774613
| 39> C   -20.18544715 -29.81834676 -13.35600963
| 40> C   -20.89248349 -29.61899329 -12.03231856
| 41> C   -21.02316625 -28.13434084 -11.72187040
| 42> C   -21.64069703 -27.37313234 -12.89658340
| 43> C   -21.57861023 -25.85825875 -12.74994024
| 44> O   -20.12488128 -31.16245889 -13.72134773
| 45> O   -21.86434467 -28.04377130 -10.60099156
| 46> O   -20.97461661 -27.70277520 -14.09275484
| 47> O   -22.62848675 -25.22541951 -13.41384901
| 48> H   -20.31127731 -29.06568596 -15.35996671
| 49> H   -19.17505775 -29.40610606 -13.27344587
| 50> H   -20.03314654 -27.73363091 -11.48486906
| 51> H   -22.68705487 -27.66928132 -12.95734699
| 52> H   -21.58621200 -25.58816755 -11.69725254
| 53> H   -20.63090097 -25.52679671 -13.17781922
| 54> H   -19.83033305 -31.66895998 -12.97753323
| 55> H   -23.22858233 -24.88767521 -12.76446658
| 56> C   -24.14376464 -30.57083552 -18.21523024
| 57> C   -22.67695880 -30.97322954 -18.06780438
| 58> C   -22.23926102 -30.97279188 -16.61645466
| 59> C   -22.60096308 -29.63057905 -15.99175288
| 60> C   -24.12112269 -29.46933215 -16.10679059
| 61> C   -24.60251705 -28.20389107 -15.41571536
| 62> O   -22.49630173 -32.22761501 -18.65183782
| 63> O   -20.87173893 -31.24521466 -16.59472252
| 64> O   -22.15500765 -29.58115834 -14.66647271
| 65> O   -24.40631775 -29.41405282 -17.49049393
| 66> H   -24.36058417 -30.33839046 -19.25081862
| 67> H   -22.07729974 -30.22546264 -18.59592382
| 68> H   -22.78554527 -31.75246724 -16.07981544
| 69> H   -22.13633416 -28.82162492 -16.56160688
| 70> H   -24.62424657 -30.32283346 -15.66640664
| 71> H   -21.59176482 -32.48046396 -18.53105126
| 72> H   -20.59529416 -31.46906312 -15.71311184
| 73> C   -28.29055596 -33.82800149 -18.25213463
| 74> C   -26.98220898 -34.58884585 -18.37762725
| 75> C   -25.83128983 -33.70930100 -17.92797331
| 76> C   -25.83262347 -32.31941194 -18.56609522
| 77> C   -27.23867399 -31.70473583 -18.56211142
| 78> C   -27.48172628 -30.53024563 -19.50712782
| 79> O   -27.05260977 -35.75591373 -17.62176304
| 80> O   -24.65020210 -34.39467031 -18.20507350
| 81> O   -24.94442748 -31.59603319 -17.75596166
| 82> O   -28.18536443 -32.66365733 -18.99075362
| 83> O   -26.55561615 -29.50294430 -19.42678690
| 84> H   -29.10953675 -34.40249806 -18.68646045
| 85> H   -26.85051933 -34.82377602 -19.43812232
| 86> H   -25.93866440 -33.55296225 -16.85266495
| 87> H   -25.45040208 -32.39451241 -19.58779122
| 88> H   -27.44474813 -31.40338095 -17.53504216
| 89> H   -27.45216355 -30.90696770 -20.52914908
| 90> H   -28.49783182 -30.17197154 -19.32015992
| 91> H   -26.19788496 -36.16286899 -17.62163871
| 92> H   -23.91020827 -33.80219800 -18.13694676
| 93> H   -26.43676743 -29.19030842 -18.54062305
| 94> C   -31.24646208 -32.14632397 -14.24106942
| 95> C   -30.80063968 -33.58630030 -14.04593247
| 96> C   -29.57829575 -33.85546549 -14.89698674
| 97> C   -29.81243398 -33.48637659 -16.36010173
| 98> C   -30.42189388 -32.08198267 -16.48456966
| 99> C   -30.99775330 -31.74140172 -17.84405615
|100> O   -30.55866935 -33.80736198 -12.69049490
|101> O   -29.24133358 -35.19933910 -14.76511914
|102> O   -28.53026935 -33.56750861 -16.92011900
|103> O   -31.48708125 -31.92116329 -15.57718539
|104> O   -31.11266065 -30.35082856 -17.92140989
|105> H   -32.19231329 -31.98177235 -13.73402278
|106> H   -31.61805316 -34.22528279 -14.39298326
|107> H   -28.76677668 -33.22256900 -14.53111332
|108> H   -30.47216384 -34.23386030 -16.81339729
|109> H   -29.62929678 -31.37085637 -16.26063343
|110> H   -30.35216729 -32.11546666 -18.63321007
|111> H   -31.97503013 -32.22605229 -17.92471474
|112> H   -30.12987115 -34.64505988 -12.58459793
|113> H   -28.49388175 -35.38967795 -15.31869274
|114> H   -31.53349055 -30.10326407 -18.72862000
|115> C   -30.41213774 -27.97915330 -11.17192128
|116> C   -31.33340132 -29.16529672 -10.88179876
|117> C   -30.85268177 -30.42393078 -11.57709279
|118> C   -30.71894817 -30.13978124 -13.06726507
|119> C   -29.71479068 -28.99849161 -13.23222364
|120> O   -31.42243791 -29.35443057 -9.50327621 
|121> O   -31.76060189 -31.44045441 -11.28597189
|122> O   -30.27769616 -31.28382499 -13.73959320
|123> O   -30.20678337 -27.87253233 -12.53826729
|124> H   -30.88981080 -27.05558446 -10.86791518
|125> H   -32.31916875 -28.91176590 -11.28326614
|126> H   -29.86313092 -30.68534835 -11.19365029
|127> H   -31.96748153 -30.11310497 -9.34342483 
|128> H   -31.37413726 -32.28816617 -11.47630749
|129> C   -26.50777051 -26.61325753 -7.83561777 
|130> C   -27.44686453 -27.67953406 -7.30267797 
|131> C   -28.16614639 -28.37176078 -8.44351053 
|132> C   -28.84570317 -27.38161545 -9.38821661 
|133> C   -27.89195354 -26.23083411 -9.75466047 
|134> C   -28.55426006 -24.98849533 -10.34588483
|135> O   -26.72227298 -28.59695374 -6.54166688 
|136> O   -29.06378900 -29.26109343 -7.86145959 
|137> O   -29.19390804 -28.13184997 -10.52834310
|138> O   -27.24160303 -25.73074863 -8.60560175 
|139> O   -29.41822584 -25.23385275 -11.40001207
|140> H   -26.09187204 -26.03275926 -7.01301755 
|141> H   -28.19006529 -27.17569773 -6.67843359 
|142> H   -27.42195176 -28.91196498 -9.03390228 
|143> H   -29.74153246 -26.98601752 -8.90333067 
|144> H   -27.15435449 -26.63401369 -10.45231709
|145> H   -29.13745146 -24.51437883 -9.55745278 
|146> H   -27.76177803 -24.28865345 -10.62571984
|147> H   -27.29998007 -29.30844330 -6.30087939 
|148> H   -29.77732597 -29.46064593 -8.45677773 
|149> H   -28.97113684 -25.61901625 -12.13931121
|150> C   -27.88036500 -26.67760149 -15.10788773
|151> C   -26.51835504 -26.60649021 -15.42218889
|152> N   -28.18588630 -28.02281889 -14.94432220
|153> N   -26.02878659 -27.91273873 -15.47029623
|154> C   -27.03935984 -28.78366477 -15.10304445
|155> H   -24.09079396 -27.35270419 -15.85505044
|156> H   -24.28907193 -28.27329506 -14.37615939
|157> C   -28.65398625 -25.54262909 -14.99310072
|158> C   -25.90035380 -25.38754929 -15.60489750
|159> C   -29.48985306 -28.59109790 -14.68660417
|160> H   -28.76361320 -29.30940888 -12.79903143
|161> H   -30.24536388 -27.86152932 -14.96541115
|162> H   -29.63227664 -29.44635858 -15.33847834
|163> O   -20.17051968 -30.29123580 -11.05004552
|164> H   -21.90130164 -30.03030486 -12.11852898
|165> H   -20.59640192 -30.19046231 -10.20584222
|166> N   -26.88987548 -30.02891868 -14.94365468
|167> H   -27.73109769 -30.48909615 -14.65302922
|168> C   -26.68165823 -24.23245301 -15.49229435
|169> C   -28.03109761 -24.30661925 -15.19745615
|170> H   -26.21452006 -23.26731997 -15.63531205
|171> H   -24.84313234 -25.30954879 -15.80944629
|172> H   -28.61577490 -23.40043019 -15.11247261
|173> H   -29.70315182 -25.59744458 -14.73973391
|174> *
|175> 
|176>                          ****END OF INPUT****
================================================================================

                       ****************************
                       * Single Point Calculation *
                       ****************************

---------------------------------
CARTESIAN COORDINATES (ANGSTROEM)
---------------------------------
  H    -31.682102  -29.819070  -13.474061
  C    -21.522483  -27.353058   -9.462023
  C    -21.946022  -28.168547   -8.249456
  C    -23.458060  -28.294573   -8.209583
  C    -24.143408  -26.938598   -8.345190
  C    -23.556507  -26.138170   -9.509719
  C    -24.030138  -24.702283   -9.558435
  O    -21.334254  -29.419821   -8.303895
  O    -23.790326  -28.924693   -7.015456
  O    -25.502011  -27.202875   -8.572552
  O    -22.153529  -26.119260   -9.408309
  O    -23.750136  -24.175502  -10.826599
  H    -20.452077  -27.154860   -9.430790
  H    -21.618584  -27.624420   -7.358787
  H    -23.767219  -28.898599   -9.065957
  H    -24.014926  -26.386847   -7.409388
  H    -23.858935  -26.627020  -10.435740
  H    -25.100800  -24.667099   -9.360200
  H    -23.509806  -24.138558   -8.780057
  H    -21.686810  -29.959237   -7.609869
  H    -24.735265  -28.987376   -6.922530
  H    -23.854977  -23.237356  -10.822910
  C    -20.899592  -29.033952  -14.447746
  C    -20.185447  -29.818347  -13.356010
  C    -20.892483  -29.618993  -12.032319
  C    -21.023166  -28.134341  -11.721870
  C    -21.640697  -27.373132  -12.896583
  C    -21.578610  -25.858259  -12.749940
  O    -20.124881  -31.162459  -13.721348
  O    -21.864345  -28.043771  -10.600992
  O    -20.974617  -27.702775  -14.092755
  O    -22.628487  -25.225420  -13.413849
  H    -20.311277  -29.065686  -15.359967
  H    -19.175058  -29.406106  -13.273446
  H    -20.033147  -27.733631  -11.484869
  H    -22.687055  -27.669281  -12.957347
  H    -21.586212  -25.588168  -11.697253
  H    -20.630901  -25.526797  -13.177819
  H    -19.830333  -31.668960  -12.977533
  H    -23.228582  -24.887675  -12.764467
  C    -24.143765  -30.570836  -18.215230
  C    -22.676959  -30.973230  -18.067804
  C    -22.239261  -30.972792  -16.616455
  C    -22.600963  -29.630579  -15.991753
  C    -24.121123  -29.469332  -16.106791
  C    -24.602517  -28.203891  -15.415715
  O    -22.496302  -32.227615  -18.651838
  O    -20.871739  -31.245215  -16.594723
  O    -22.155008  -29.581158  -14.666473
  O    -24.406318  -29.414053  -17.490494
  H    -24.360584  -30.338390  -19.250819
  H    -22.077300  -30.225463  -18.595924
  H    -22.785545  -31.752467  -16.079815
  H    -22.136334  -28.821625  -16.561607
  H    -24.624247  -30.322833  -15.666407
  H    -21.591765  -32.480464  -18.531051
  H    -20.595294  -31.469063  -15.713112
  C    -28.290556  -33.828001  -18.252135
  C    -26.982209  -34.588846  -18.377627
  C    -25.831290  -33.709301  -17.927973
  C    -25.832623  -32.319412  -18.566095
  C    -27.238674  -31.704736  -18.562111
  C    -27.481726  -30.530246  -19.507128
  O    -27.052610  -35.755914  -17.621763
  O    -24.650202  -34.394670  -18.205074
  O    -24.944427  -31.596033  -17.755962
  O    -28.185364  -32.663657  -18.990754
  O    -26.555616  -29.502944  -19.426787
  H    -29.109537  -34.402498  -18.686460
  H    -26.850519  -34.823776  -19.438122
  H    -25.938664  -33.552962  -16.852665
  H    -25.450402  -32.394512  -19.587791
  H    -27.444748  -31.403381  -17.535042
  H    -27.452164  -30.906968  -20.529149
  H    -28.497832  -30.171972  -19.320160
  H    -26.197885  -36.162869  -17.621639
  H    -23.910208  -33.802198  -18.136947
  H    -26.436767  -29.190308  -18.540623
  C    -31.246462  -32.146324  -14.241069
  C    -30.800640  -33.586300  -14.045932
  C    -29.578296  -33.855465  -14.896987
  C    -29.812434  -33.486377  -16.360102
  C    -30.421894  -32.081983  -16.484570
  C    -30.997753  -31.741402  -17.844056
  O    -30.558669  -33.807362  -12.690495
  O    -29.241334  -35.199339  -14.765119
  O    -28.530269  -33.567509  -16.920119
  O    -31.487081  -31.921163  -15.577185
  O    -31.112661  -30.350829  -17.921410
  H    -32.192313  -31.981772  -13.734023
  H    -31.618053  -34.225283  -14.392983
  H    -28.766777  -33.222569  -14.531113
  H    -30.472164  -34.233860  -16.813397
  H    -29.629297  -31.370856  -16.260633
  H    -30.352167  -32.115467  -18.633210
  H    -31.975030  -32.226052  -17.924715
  H    -30.129871  -34.645060  -12.584598
  H    -28.493882  -35.389678  -15.318693
  H    -31.533491  -30.103264  -18.728620
  C    -30.412138  -27.979153  -11.171921
  C    -31.333401  -29.165297  -10.881799
  C    -30.852682  -30.423931  -11.577093
  C    -30.718948  -30.139781  -13.067265
  C    -29.714791  -28.998492  -13.232224
  O    -31.422438  -29.354431   -9.503276
  O    -31.760602  -31.440454  -11.285972
  O    -30.277696  -31.283825  -13.739593
  O    -30.206783  -27.872532  -12.538267
  H    -30.889811  -27.055584  -10.867915
  H    -32.319169  -28.911766  -11.283266
  H    -29.863131  -30.685348  -11.193650
  H    -31.967482  -30.113105   -9.343425
  H    -31.374137  -32.288166  -11.476307
  C    -26.507771  -26.613258   -7.835618
  C    -27.446865  -27.679534   -7.302678
  C    -28.166146  -28.371761   -8.443511
  C    -28.845703  -27.381615   -9.388217
  C    -27.891954  -26.230834   -9.754660
  C    -28.554260  -24.988495  -10.345885
  O    -26.722273  -28.596954   -6.541667
  O    -29.063789  -29.261093   -7.861460
  O    -29.193908  -28.131850  -10.528343
  O    -27.241603  -25.730749   -8.605602
  O    -29.418226  -25.233853  -11.400012
  H    -26.091872  -26.032759   -7.013018
  H    -28.190065  -27.175698   -6.678434
  H    -27.421952  -28.911965   -9.033902
  H    -29.741532  -26.986018   -8.903331
  H    -27.154354  -26.634014  -10.452317
  H    -29.137451  -24.514379   -9.557453
  H    -27.761778  -24.288653  -10.625720
  H    -27.299980  -29.308443   -6.300879
  H    -29.777326  -29.460646   -8.456778
  H    -28.971137  -25.619016  -12.139311
  C    -27.880365  -26.677601  -15.107888
  C    -26.518355  -26.606490  -15.422189
  N    -28.185886  -28.022819  -14.944322
  N    -26.028787  -27.912739  -15.470296
  C    -27.039360  -28.783665  -15.103044
  H    -24.090794  -27.352704  -15.855050
  H    -24.289072  -28.273295  -14.376159
  C    -28.653986  -25.542629  -14.993101
  C    -25.900354  -25.387549  -15.604897
  C    -29.489853  -28.591098  -14.686604
  H    -28.763613  -29.309409  -12.799031
  H    -30.245364  -27.861529  -14.965411
  H    -29.632277  -29.446359  -15.338478
  O    -20.170520  -30.291236  -11.050046
  H    -21.901302  -30.030305  -12.118529
  H    -20.596402  -30.190462  -10.205842
  N    -26.889875  -30.028919  -14.943655
  H    -27.731098  -30.489096  -14.653029
  C    -26.681658  -24.232453  -15.492294
  C    -28.031098  -24.306619  -15.197456
  H    -26.214520  -23.267320  -15.635312
  H    -24.843132  -25.309549  -15.809446
  H    -28.615775  -23.400430  -15.112473
  H    -29.703152  -25.597445  -14.739734

----------------------------
CARTESIAN COORDINATES (A.U.)
----------------------------
  NO LB      ZA    FRAG     MASS         X           Y           Z
   0 H     1.0000    0     1.008  -59.870496  -56.349876  -25.462285
   1 C     6.0000    0    12.011  -40.671599  -51.689788  -17.880633
   2 C     6.0000    0    12.011  -41.471971  -53.230839  -15.589212
   3 C     6.0000    0    12.011  -44.329310  -53.468993  -15.513864
   4 C     6.0000    0    12.011  -45.624429  -50.906573  -15.770123
   5 C     6.0000    0    12.011  -44.515347  -49.393983  -17.970764
   6 C     6.0000    0    12.011  -45.410380  -46.680550  -18.062825
   7 O     8.0000    0    15.999  -40.315898  -55.595405  -15.692088
   8 O     8.0000    0    15.999  -44.957201  -54.659747  -13.257291
   9 O     8.0000    0    15.999  -48.191816  -51.405983  -16.199775
  10 O     8.0000    0    15.999  -41.864103  -49.358248  -17.779127
  11 O     8.0000    0    15.999  -44.881253  -45.685078  -20.459306
  12 H     1.0000    0     1.008  -38.648825  -51.315248  -17.821610
  13 H     1.0000    0     1.008  -40.853203  -52.202589  -13.906092
  14 H     1.0000    0     1.008  -44.913534  -54.610438  -17.132176
  15 H     1.0000    0     1.008  -45.381632  -49.863914  -14.001714
  16 H     1.0000    0     1.008  -45.086852  -50.317775  -19.720691
  17 H     1.0000    0     1.008  -47.433638  -46.614062  -17.688214
  18 H     1.0000    0     1.008  -44.427094  -45.615263  -16.591902
  19 H     1.0000    0     1.008  -40.982131  -56.614753  -14.380569
  20 H     1.0000    0     1.008  -46.742876  -54.778202  -13.081686
  21 H     1.0000    0     1.008  -45.079374  -43.912239  -20.452336
  22 C     6.0000    0    12.011  -39.494505  -54.866218  -27.302283
  23 C     6.0000    0    12.011  -38.144967  -56.348509  -25.239200
  24 C     6.0000    0    12.011  -39.481072  -55.971786  -22.737787
  25 C     6.0000    0    12.011  -39.728027  -53.166199  -22.151125
  26 C     6.0000    0    12.011  -40.894991  -51.727724  -24.371011
  27 C     6.0000    0    12.011  -40.777664  -48.865027  -24.093895
  28 O     8.0000    0    15.999  -38.030514  -58.888513  -25.929589
  29 O     8.0000    0    15.999  -41.317624  -52.995048  -20.032971
  30 O     8.0000    0    15.999  -39.636281  -52.350658  -26.631447
  31 O     8.0000    0    15.999  -42.761643  -47.669134  -25.348501
  32 H     1.0000    0     1.008  -38.382752  -54.926186  -29.026131
  33 H     1.0000    0     1.008  -36.235608  -55.569487  -25.083178
  34 H     1.0000    0     1.008  -37.857161  -52.408967  -21.703257
  35 H     1.0000    0     1.008  -42.872320  -52.287364  -24.485837
  36 H     1.0000    0     1.008  -40.792029  -48.354629  -22.104604
  37 H     1.0000    0     1.008  -38.986753  -48.238655  -24.902469
  38 H     1.0000    0     1.008  -37.473899  -59.845661  -24.523984
  39 H     1.0000    0     1.008  -43.895659  -47.030890  -24.121346
  40 C     6.0000    0    12.011  -45.625103  -57.770507  -34.421797
  41 C     6.0000    0    12.011  -42.853242  -58.530921  -34.143202
  42 C     6.0000    0    12.011  -42.026113  -58.530094  -31.400549
  43 C     6.0000    0    12.011  -42.709631  -55.993680  -30.220033
  44 C     6.0000    0    12.011  -45.582316  -55.688967  -30.437423
  45 C     6.0000    0    12.011  -46.492019  -53.297630  -29.131480
  46 O     8.0000    0    15.999  -42.511849  -60.901366  -35.246865
  47 O     8.0000    0    15.999  -39.441871  -59.044899  -31.359481
  48 O     8.0000    0    15.999  -41.866897  -55.900288  -27.715617
  49 O     8.0000    0    15.999  -46.121256  -55.584504  -33.052243
  50 H     1.0000    0     1.008  -46.034833  -57.331249  -36.378775
  51 H     1.0000    0     1.008  -41.720050  -57.117847  -35.141203
  52 H     1.0000    0     1.008  -43.058440  -60.003467  -30.386447
  53 H     1.0000    0     1.008  -41.831609  -54.464978  -31.296901
  54 H     1.0000    0     1.008  -46.533082  -57.301851  -29.605218
  55 H     1.0000    0     1.008  -40.802522  -61.379182  -35.018612
  56 H     1.0000    0     1.008  -38.919466  -59.467911  -29.693478
  57 C     6.0000    0    12.011  -53.461403  -63.925658  -34.491536
  58 C     6.0000    0    12.011  -50.988985  -65.363446  -34.728682
  59 C     6.0000    0    12.011  -48.814063  -63.701347  -33.878960
  60 C     6.0000    0    12.011  -48.816584  -61.074837  -35.084835
  61 C     6.0000    0    12.011  -51.473634  -59.913268  -35.077307
  62 C     6.0000    0    12.011  -51.932936  -57.693803  -36.863129
  63 O     8.0000    0    15.999  -51.122024  -67.568885  -33.300306
  64 O     8.0000    0    15.999  -46.582131  -64.996507  -34.402603
  65 O     8.0000    0    15.999  -47.138137  -59.707850  -33.553905
  66 O     8.0000    0    15.999  -53.262620  -61.725367  -35.887323
  67 O     8.0000    0    15.999  -50.182842  -55.752485  -36.711307
  68 H     1.0000    0     1.008  -55.009052  -65.011300  -35.312293
  69 H     1.0000    0     1.008  -50.740128  -65.807400  -36.732728
  70 H     1.0000    0     1.008  -49.016972  -63.405910  -31.846921
  71 H     1.0000    0     1.008  -48.094290  -61.216757  -37.015561
  72 H     1.0000    0     1.008  -51.863058  -59.343790  -33.136427
  73 H     1.0000    0     1.008  -51.877071  -58.405705  -38.794470
  74 H     1.0000    0     1.008  -53.853098  -57.016763  -36.509811
  75 H     1.0000    0     1.008  -49.506828  -68.337919  -33.300071
  76 H     1.0000    0     1.008  -45.183745  -63.876897  -34.273862
  77 H     1.0000    0     1.008  -49.958250  -55.161689  -35.036700
  78 C     6.0000    0    12.011  -59.047256  -60.747749  -26.911721
  79 C     6.0000    0    12.011  -58.204774  -63.468909  -26.542966
  80 C     6.0000    0    12.011  -55.894878  -63.977558  -28.151225
  81 C     6.0000    0    12.011  -56.337336  -63.280081  -30.916112
  82 C     6.0000    0    12.011  -57.489048  -60.626161  -31.151322
  83 C     6.0000    0    12.011  -58.577265  -59.982556  -33.720379
  84 O     8.0000    0    15.999  -57.747516  -63.886655  -23.981560
  85 O     8.0000    0    15.999  -55.258112  -66.517111  -27.902032
  86 O     8.0000    0    15.999  -53.914396  -63.433398  -31.974391
  87 O     8.0000    0    15.999  -59.501960  -60.322256  -29.436614
  88 O     8.0000    0    15.999  -58.794408  -57.354754  -33.866557
  89 H     1.0000    0     1.008  -60.834656  -60.436791  -25.953542
  90 H     1.0000    0     1.008  -59.749461  -64.676411  -27.198797
  91 H     1.0000    0     1.008  -54.361330  -62.781557  -27.459825
  92 H     1.0000    0     1.008  -57.584044  -64.692620  -31.772716
  93 H     1.0000    0     1.008  -55.991256  -59.282327  -30.728144
  94 H     1.0000    0     1.008  -57.357284  -60.689437  -35.211664
  95 H     1.0000    0     1.008  -60.424050  -60.898413  -33.872802
  96 H     1.0000    0     1.008  -56.937205  -65.469675  -23.781444
  97 H     1.0000    0     1.008  -53.845633  -66.876799  -28.948134
  98 H     1.0000    0     1.008  -59.589661  -56.886925  -35.391963
  99 C     6.0000    0    12.011  -57.470611  -52.872937  -21.111872
 100 C     6.0000    0    12.011  -59.211547  -55.114423  -20.563620
 101 C     6.0000    0    12.011  -58.303119  -57.492897  -21.877535
 102 C     6.0000    0    12.011  -58.050399  -56.955932  -24.693552
 103 C     6.0000    0    12.011  -56.152817  -54.799207  -25.005279
 104 O     8.0000    0    15.999  -59.379802  -55.471835  -17.958589
 105 O     8.0000    0    15.999  -60.018839  -59.413848  -21.327396
 106 O     8.0000    0    15.999  -57.216554  -59.117862  -25.964068
 107 O     8.0000    0    15.999  -57.082548  -52.671453  -23.693891
 108 H     1.0000    0     1.008  -58.373283  -51.127645  -20.537383
 109 H     1.0000    0     1.008  -61.074378  -54.635320  -21.322283
 110 H     1.0000    0     1.008  -56.433139  -57.986905  -21.152933
 111 H     1.0000    0     1.008  -60.409785  -56.905521  -17.656514
 112 H     1.0000    0     1.008  -59.288527  -61.015791  -21.687078
 113 C     6.0000    0    12.011  -50.092427  -50.291768  -14.807172
 114 C     6.0000    0    12.011  -51.867057  -52.306739  -13.800061
 115 C     6.0000    0    12.011  -53.226303  -53.614858  -15.955923
 116 C     6.0000    0    12.011  -54.510479  -51.743754  -17.741158
 117 C     6.0000    0    12.011  -52.708154  -49.569093  -18.433637
 118 C     6.0000    0    12.011  -53.959731  -47.221413  -19.550889
 119 O     8.0000    0    15.999  -50.497778  -54.040411  -12.361959
 120 O     8.0000    0    15.999  -54.922602  -55.295453  -14.856006
 121 O     8.0000    0    15.999  -55.168491  -53.161492  -19.895685
 122 O     8.0000    0    15.999  -51.479169  -48.624068  -16.262231
 123 O     8.0000    0    15.999  -55.592390  -47.685071  -21.542901
 124 H     1.0000    0     1.008  -49.306492  -49.194786  -13.252683
 125 H     1.0000    0     1.008  -53.271503  -51.354626  -12.620410
 126 H     1.0000    0     1.008  -51.819979  -54.635696  -17.071601
 127 H     1.0000    0     1.008  -56.203351  -50.996183  -16.824857
 128 H     1.0000    0     1.008  -51.314293  -50.330992  -19.752017
 129 H     1.0000    0     1.008  -55.061803  -46.325462  -18.060968
 130 H     1.0000    0     1.008  -52.462157  -45.898903  -20.079700
 131 H     1.0000    0     1.008  -51.589486  -55.384931  -11.906936
 132 H     1.0000    0     1.008  -56.270991  -55.672553  -15.980994
 133 H     1.0000    0     1.008  -54.747514  -48.412925  -22.939974
 134 C     6.0000    0    12.011  -52.686254  -50.413361  -28.549770
 135 C     6.0000    0    12.011  -50.112429  -50.278980  -29.143713
 136 N     7.0000    0    14.007  -53.263606  -52.955453  -28.240676
 137 N     7.0000    0    14.007  -49.187278  -52.747432  -29.234623
 138 C     6.0000    0    12.011  -51.096985  -54.393244  -28.540618
 139 H     1.0000    0     1.008  -45.525003  -51.689120  -29.961703
 140 H     1.0000    0     1.008  -45.899694  -53.428785  -27.167004
 141 C     6.0000    0    12.011  -54.148187  -48.268574  -28.332854
 142 C     6.0000    0    12.011  -48.944575  -47.975515  -29.488983
 143 C     6.0000    0    12.011  -55.727746  -54.029345  -27.753660
 144 H     1.0000    0     1.008  -54.355352  -55.386756  -24.186664
 145 H     1.0000    0     1.008  -57.155455  -52.650660  -28.280529
 146 H     1.0000    0     1.008  -55.996888  -55.645553  -28.985523
 147 O     8.0000    0    15.999  -38.116758  -57.242140  -20.881560
 148 H     1.0000    0     1.008  -41.387462  -56.749052  -22.900701
 149 H     1.0000    0     1.008  -38.921559  -57.051706  -19.286247
 150 N     7.0000    0    14.007  -50.814500  -56.746432  -28.239415
 151 H     1.0000    0     1.008  -52.404180  -57.616042  -27.690212
 152 C     6.0000    0    12.011  -50.421027  -45.792700  -29.276194
 153 C     6.0000    0    12.011  -52.971098  -45.932854  -28.719030
 154 H     1.0000    0     1.008  -49.538264  -43.968863  -29.546458
 155 H     1.0000    0     1.008  -46.946716  -47.828116  -29.875524
 156 H     1.0000    0     1.008  -54.075978  -44.220404  -28.558434
 157 H     1.0000    0     1.008  -56.130822  -48.372160  -27.854060

--------------------------------
INTERNAL COORDINATES (ANGSTROEM)
--------------------------------
 H      0   0   0     0.000000000000     0.00000000     0.00000000
 C      1   0   0    11.198013737938     0.00000000     0.00000000
 C      2   1   0     1.521422816243    85.12061325     0.00000000
 C      3   2   1     1.517805264604   110.04561285   340.72371094
 C      4   3   2     1.525370904947   111.80479798   309.05721254
 C      5   4   3     1.530119756364   111.12143706    48.01204424
 C      6   5   4     1.512769305159   113.63746123   189.50566594
 O      3   2   1     1.393883295931   109.13876257   103.16587768
 O      4   3   2     1.390463958622   107.35197153   186.06107697
 O      5   4   3     1.402618165855   106.38663930   168.08008747
 O      2   1  10     1.386853220038    78.28555224   303.21407158
 O      7   6   5     1.401476859875   108.86628855   196.24267320
 H      2   1  10     1.089048502236   160.40594072   196.77331156
 H      3   2   1     1.093883479872   107.39650106   222.74293318
 H      4   3   2     1.092613017414   107.88997051    66.61175224
 H      5   4   3     1.093920454038   108.63544356   286.85590679
 H      6   5   4     1.089932270407   107.79200318    69.66809570
 H      7   6   5     1.089427599787   109.42000957   316.99871355
 H      7   6   5     1.092888624056   108.51768148    75.53774650
 H      8   3   2     0.947067470139   108.61988192   187.16342784
 H      9   4   3     0.951563689275   110.54946570   177.10151929
 H     12   7   6     0.943993198434   110.35420770   192.70372965
 C      2   1  10     5.298191327774    72.52122706   185.58165023
 C     23   2   1     1.522224193264    62.85377833   239.39771037
 C     24  23   2     1.513869294516   109.88510340    24.02378992
 C     25  24  23     1.522382652653   110.29276325   305.68550546
 C     26  25  24     1.529945514418   111.30190244    51.55566122
 C     27  26  25     1.523220594920   113.85618825   190.02167301
 O     24  23   2     1.394194236803   109.22197214   147.38896667
 O      2   1  10     1.375210297719    50.73726335   172.52221319
 O     23   2   1     1.379738794554    56.31687616    96.41946550
 O     28  27  26     1.394095070579   112.01885352   208.67823791
 H     23   2   1     1.085940836618   149.70613628   157.17136499
 H     24  23   2     1.094370096829   107.04631176   266.50976393
 H     26  25  24     1.094018788390   108.88631801   289.56981270
 H     27  26  25     1.089156169497   107.17674383    70.21077466
 H     28  27  26     1.086811132146   109.88414108   331.35750196
 H     28  27  26     1.091375438141   107.43939958    88.71455996
 H     29  24  23     0.946869592065   108.86697987   190.51422801
 H     32  28  27     0.946511203162   108.22281814   108.39269755
 C     33  23   2     5.010585211163    94.19137047   197.98306233
 C     41  33  23     1.528127842750    44.76027282   224.76946863
 C     42  41  33     1.515914096480   111.68098831    39.59743252
 C     43  42  41     1.524013115154   108.91558070   307.89500434
 C     44  43  42     1.533009940397   107.29083641    59.79045584
 C     45  44  43     1.520087704809   111.56036125   175.66836895
 O     42  41  33     1.395426437805   108.69921971   162.80222442
 O     43  42  41     1.394561982706   107.33752686   184.65445822
 O     23   2   1     1.386847070683    99.62323972   346.51390468
 O     41  33  23     1.390080238555    66.25866831    54.11061816
 H     41  33  23     1.083274991541   129.30109365   146.29786225
 H     42  41  33     1.094374921077   107.42616523   281.74254040
 H     43  42  41     1.092841160110   109.00179166    65.46367173
 H     44  43  42     1.093169885727   109.70511777   303.03059001
 H     45  44  43     1.084221447960   110.29610157    54.52103965
 H     47  42  41     0.946947203462   108.07770889   181.79482061
 H     48  43  42     0.950666731823   110.21847730   194.09802433
 C     41  33  23     5.273174598072   142.28211533   318.92020330
 C     58  41  33     1.518685075285    68.44181152   287.45820714
 C     59  58  41     1.516707848848   109.79807394    17.93395260
 C     60  59  58     1.529376653976   113.74413128   310.37889403
 C     61  60  59     1.534542490666   111.33020718    44.44812747
 C     62  61  60     1.526943889552   116.89405211   197.37273534
 O     59  58  41     1.392240787981   109.36207239   140.34783346
 O     60  59  58     1.393371390672   107.39858452   186.63656946
 O     41  33  23     1.379499501452   118.51984928   313.86836964
 O     58  41  33     1.382866802443    54.81913043   153.89568536
 O     63  62  61     1.385453954101   115.34370459   309.15605495
 H     58  41  33     1.090602934734   156.73710129   195.50019138
 H     59  58  41     1.094159102776   106.93857902   260.17519396
 H     60  59  58     1.091906210313   107.47984786    67.76750612
 H     61  60  59     1.093433120032   109.09559482   282.23547160
 H     62  61  60     1.090024118868   106.64326649    74.00603210
 H     63  62  61     1.089642569342   108.07372054    68.83516727
 H     63  62  61     1.093520821756   107.10345049   184.25987578
 H     64  59  58     0.946661026941   108.34713525   186.98814006
 H     65  60  59     0.950397579573   109.82213726   166.30795141
 H     68  63  62     0.947181387463   112.51167897   307.56516609
 C      1   2   3     2.488813845361    99.06365578   281.33944117
 C     79   1   2     1.519989431726   153.84924813    55.76053568
 C     80  79   1     1.513561347683   109.46070555   244.04384864
 C     81  80  79     1.527007793305   111.83562641   306.52279314
 C     82  81  80     1.535986952366   111.06846208    48.74475357
 C     83  82  81     1.515194037606   115.40591234   193.94346405
 O     80  79   1     1.394499520664   109.01752821     7.14199077
 O     81  80  79     1.391735911585   108.29894212   183.67086458
 O     58  41  33     1.378254217639    90.76011861    37.55292040
 O     79   1   2     1.376154352563    96.63914613   242.54460214
 O     84  83  82     1.397455191943   107.73324055   198.42648820
 H     79   1   2     1.085729267469    64.01519340   137.90617171
 H     80  79   1     1.094032755749   107.06435040   126.34836710
 H     81  80  79     1.092238310759   107.97689893    64.16372784
 H     82  81  80     1.095195073768   108.90338011   286.73571059
 H     83  82  81     1.088144389586   106.96808082    73.34398640
 H     84  83  82     1.086033970508   110.40313598   319.26109841
 H     84  83  82     1.093829047702   107.82605023    78.19179658
 H     85  80  79     0.947005721336   109.11618268   190.45290526
 H     86  81  80     0.949398149675   109.20553969   177.98648866
 H     89  84  83     0.943384408992   110.19232035   184.56197661
 C      1   2   3     3.209041701763    42.06894377    70.99428598
 C    100   1   2     1.529651552889    56.84682636   244.29987413
 C    101 100   1     1.516141408609   111.45626592    52.02555741
 C      1   2   3     1.093619216032    29.80467300   304.74915462
 C    103   1   2     1.529079989433   108.62369767   340.65281508
 O    101 100   1     1.394282449303   109.33975544   175.32916742
 O    102 101 100     1.393696743580   107.64670469   181.34703117
 O     79   1   2     1.390643842786    55.30904345   354.44569288
 O    100   1   2     1.385799360501    52.80247069    62.44111541
 H    100   1   2     1.083314664955   121.03937522   149.47667802
 H    101 100   1     1.094162401083   107.05779334   294.07419904
 H    102 101 100     1.092967603109   108.94966621    62.08810381
 H    105 101 100     0.947740395154   108.18419221   182.26547154
 H    106 102 101     0.950893147999   110.09963372   196.83421805
 C     10   5   4     1.379229141103   122.62764074   128.96061941
 C    114  10   5     1.517520361396   109.78744024   231.58978112
 C    115 114  10     1.515929799154   110.49859692   294.81174944
 C    116 115 114     1.527957711900   112.35920099   307.75931601
 C    117 116 115     1.538901280703   110.86532100    46.77614018
 C    118 117 116     1.526958353913   115.58120103   197.05992254
 O    115 114  10     1.394929984869   109.40592252    57.18710356
 O    116 115 114     1.391207430399   106.45111703   183.93747017
 O    100   1   2     1.386215260615   128.14795593   335.86720010
 O    114  10   5     1.382102548817   111.25263546   111.59227885
 O    119 118 117     1.384854277774   114.90867117   309.44403912
 H    114  10   5     1.089321302814   110.66375998   353.46824033
 H    115 114  10     1.093562738508   107.29625731   176.68366255
 H    116 115 114     1.092798537465   108.01006823    65.30977577
 H    117 116 115     1.092758991659   108.95623253   285.50677761
 H    118 117 116     1.092396856330   107.13055315    73.77416269
 H    119 118 117     1.089276715107   107.82415517    68.77593812
 H    119 118 117     1.093669994878   107.78242749   184.12515074
 H    120 115 114     0.947597747552   108.40637901   186.50646570
 H    121 116 115     0.950452468894   110.88877446   156.62326481
 H    124 119 118     0.945940121814   111.84997093   297.63161996
 C    134 124 119     3.335091074076   168.37347825   207.98299141
 C    135 134 124     1.399611790626   120.13439068   134.90123085
 N    135 134 124     1.389138870171    97.50625019   249.37758738
 N    136 135 134     1.395806856051   107.54838306   110.66955937
 C    138 136 135     1.383706735793   108.88819675   355.98200498
 H     46  45  44     1.085999511069   108.62307199    57.63374734
 H     46  45  44     1.087998792206   106.86072413   301.92552529
 C    135 134 124     1.378342571670    58.73081797    24.10379906
 C    136 135 134     1.378812871734   120.72012200   291.50282319
 C    137 135 134     1.445575638761   126.87485644    59.09714668
 H    104 103   1     1.090441946207   108.49135312   178.32155058
 H    144 137 135     1.086646328921   108.51066973    18.82780650
 H    144 137 135     1.084755843684   108.73821002   134.27609344
 O     25  24  23     1.392121424414   108.12889317   183.14480351
 H     25  24  23     1.092851089537   108.21536021    63.25144958
 H    148  25  24     0.950899674185   110.05837350   180.52282226
 N    139 138 136     1.264281603534   124.54480498   185.82055491
 H    151 139 138     1.001938754861   112.93412507   178.43790336
 C    143 136 135     1.399058075205   117.96449502   358.76739261
 C    153 143 136     1.383263111498   121.17694291     0.44964779
 H    153 143 136     1.081736528589   119.00101344   180.17706488
 H    143 136 135     1.079648785937   121.86210325   177.55277725
 H    154 153 143     1.081780175441   119.93993351   179.83615452
 H    142 135 134     1.080716369649   121.50962897   289.13008178

---------------------------
INTERNAL COORDINATES (A.U.)
---------------------------
 H      0   0   0     0.000000000000     0.00000000     0.00000000
 C      1   0   0    21.161179208591     0.00000000     0.00000000
 C      2   1   0     2.875072456598    85.12061325     0.00000000
 C      3   2   1     2.868236274726   110.04561285   340.72371094
 C      4   3   2     2.882533263002   111.80479798   309.05721254
 C      5   4   3     2.891507291631   111.12143706    48.01204424
 C      6   5   4     2.858719690553   113.63746123   189.50566594
 O      3   2   1     2.634057691958   109.13876257   103.16587768
 O      4   3   2     2.627596080883   107.35197153   186.06107697
 O      5   4   3     2.650564203929   106.38663930   168.08008747
 O      2   1  10     2.620772773818    78.28555224   303.21407158
 O      7   6   5     2.648407448192   108.86628855   196.24267320
 H      2   1  10     2.058003415783   160.40594072   196.77331156
 H      3   2   1     2.067140199378   107.39650106   222.74293318
 H      4   3   2     2.064739373271   107.88997051    66.61175224
 H      5   4   3     2.067210070426   108.63544356   286.85590679
 H      6   5   4     2.059673495593   107.79200318    69.66809570
 H      7   6   5     2.058719806332   109.42000957   316.99871355
 H      7   6   5     2.065260194343   108.51768148    75.53774650
 H      8   3   2     1.789698148909   108.61988192   187.16342784
 H      9   4   3     1.798194771713   110.54946570   177.10151929
 H     12   7   6     1.783888617324   110.35420770   192.70372965
 C      2   1  10    10.012130614610    72.52122706   185.58165023
 C     23   2   1     2.876586839699    62.85377833   239.39771037
 C     24  23   2     2.860798369188   109.88510340    24.02378992
 C     25  24  23     2.876886284547   110.29276325   305.68550546
 C     26  25  24     2.891178022072   111.30190244    51.55566122
 C     27  26  25     2.878469765947   113.85618825   190.02167301
 O     24  23   2     2.634645285048   109.22197214   147.38896667
 O      2   1  10     2.598770839237    50.73726335   172.52221319
 O     23   2   1     2.607328458054    56.31687616    96.41946550
 O     28  27  26     2.634457888045   112.01885352   208.67823791
 H     23   2   1     2.052130778850   149.70613628   157.17136499
 H     24  23   2     2.068059772160   107.04631176   266.50976393
 H     26  25  24     2.067395895422   108.88631801   289.56981270
 H     27  26  25     2.058206877421   107.17674383    70.21077466
 H     28  27  26     2.053775399052   109.88414108   331.35750196
 H     28  27  26     2.062400687374   107.43939958    88.71455996
 H     29  24  23     1.789324213541   108.86697987   190.51422801
 H     32  28  27     1.788646956664   108.22281814   108.39269755
 C     33  23   2     9.468633819774    94.19137047   197.98306233
 C     41  33  23     2.887743120417    44.76027282   224.76946863
 C     42  41  33     2.864662484898   111.68098831    39.59743252
 C     43  42  41     2.879967412144   108.91558070   307.89500434
 C     44  43  42     2.896968947930   107.29083641    59.79045584
 C     45  44  43     2.872549461630   111.56036125   175.66836895
 O     42  41  33     2.636973807486   108.69921971   162.80222442
 O     43  42  41     2.635340224093   107.33752686   184.65445822
 O     23   2   1     2.620761153222    99.62323972   346.51390468
 O     41  33  23     2.626870955046    66.25866831    54.11061816
 H     41  33  23     2.047093061739   129.30109365   146.29786225
 H     42  41  33     2.068068888667   107.42616523   281.74254040
 H     43  42  41     2.065170500485   109.00179166    65.46367173
 H     44  43  42     2.065791701874   109.70511777   303.03059001
 H     45  44  43     2.048881605167   110.29610157    54.52103965
 H     47  42  41     1.789470877826   108.07770889   181.79482061
 H     48  43  42     1.796499767775   110.21847730   194.09802433
 C     41  33  23     9.964855846707   142.28211533   318.92020330
 C     58  41  33     2.869898875962    68.44181152   287.45820714
 C     59  58  41     2.866162459491   109.79807394    17.93395260
 C     60  59  58     2.890103031627   113.74413128   310.37889403
 C     61  60  59     2.899865048224   111.33020718    44.44812747
 C     62  61  60     2.885505773117   116.89405211   197.37273534
 O     59  58  41     2.630953801760   109.36207239   140.34783346
 O     60  59  58     2.633090331212   107.39858452   186.63656946
 O     41  33  23     2.606876259625   118.51984928   313.86836964
 O     58  41  33     2.613239536308    54.81913043   153.89568536
 O     63  62  61     2.618128544410   115.34370459   309.15605495
 H     58  41  33     2.060940867497   156.73710129   195.50019138
 H     59  58  41     2.067661051184   106.93857902   260.17519396
 H     60  59  58     2.063403701419   107.47984786    67.76750612
 H     61  60  59     2.066289142620   109.09559482   282.23547160
 H     62  61  60     2.059847064029   106.64326649    74.00603210
 H     63  62  61     2.059126039919   108.07372054    68.83516727
 H     63  62  61     2.066454874860   107.10345049   184.25987578
 H     64  59  58     1.788930082575   108.34713525   186.98814006
 H     65  60  59     1.795991143734   109.82213726   166.30795141
 H     68  63  62     1.789913421452   112.51167897   307.56516609
 C      1   2   3     4.703176566044    99.06365578   281.33944117
 C     79   1   2     2.872363752416   153.84924813    55.76053568
 C     80  79   1     2.860216434010   109.46070555   244.04384864
 C     81  80  79     2.885626533709   111.83562641   306.52279314
 C     82  81  80     2.902594685249   111.06846208    48.74475357
 C     83  82  81     2.863301770827   115.40591234   193.94346405
 O     80  79   1     2.635222187939   109.01752821     7.14199077
 O     81  80  79     2.629999723639   108.29894212   183.67086458
 O     58  41  33     2.604523014260    90.76011861    37.55292040
 O     79   1   2     2.600554844348    96.63914613   242.54460214
 O     84  83  82     2.640807597199   107.73324055   198.42648820
 H     79   1   2     2.051730971099    64.01519340   137.90617171
 H     80  79   1     2.067422289905   107.06435040   126.34836710
 H     81  80  79     2.064031280312   107.97689893    64.16372784
 H     82  81  80     2.069618752642   108.90338011   286.73571059
 H     83  82  81     2.056294890480   106.96808082    73.34398640
 H     84  83  82     2.052306776394   110.40313598   319.26109841
 H     84  83  82     2.067037337485   107.82605023    78.19179658
 H     85  80  79     1.789581460581   109.11618268   190.45290526
 H     86  81  80     1.794102494938   109.20553969   177.98648866
 H     89  84  83     1.782738172006   110.19232035   184.56197661
 C      1   2   3     6.064209968664    42.06894377    70.99428598
 C    100   1   2     2.890622515287    56.84682636   244.29987413
 C    101 100   1     2.865092042568   111.45626592    52.02555741
 C      1   2   3     2.066640813095    29.80467300   304.74915462
 C    103   1   2     2.889542416888   108.62369767   340.65281508
 O    101 100   1     2.634811982515   109.33975544   175.32916742
 O    102 101 100     2.633705159104   107.64670469   181.34703117
 O     79   1   2     2.627936012690    55.30904345   354.44569288
 O    100   1   2     2.618781267910    52.80247069    62.44111541
 H    100   1   2     2.047168033625   121.03937522   149.47667802
 H    101 100   1     2.067667284080   107.05779334   294.07419904
 H    102 101 100     2.065409443125   108.94966621    62.08810381
 H    105 101 100     1.790969792895   108.18419221   182.26547154
 H    106 102 101     1.796927632340   110.09963372   196.83421805
 C     10   5   4     2.606365352607   122.62764074   128.96061941
 C    114  10   5     2.867697885688   109.78744024   231.58978112
 C    115 114  10     2.864692158651   110.49859692   294.81174944
 C    116 115 114     2.887421619703   112.35920099   307.75931601
 C    117 116 115     2.908101967669   110.86532100    46.77614018
 C    118 117 116     2.885533106798   115.58120103   197.05992254
 O    115 114  10     2.636035647397   109.40592252    57.18710356
 O    116 115 114     2.629001038931   106.45111703   183.93747017
 O    100   1   2     2.619567205226   128.14795593   335.86720010
 O    114  10   5     2.611795306258   111.25263546   111.59227885
 O    119 118 117     2.616995320383   114.90867117   309.44403912
 H    114  10   5     2.058518934166   110.66375998   353.46824033
 H    115 114  10     2.066534086042   107.29625731   176.68366255
 H    116 115 114     2.065089955359   108.01006823    65.30977577
 H    117 116 115     2.065015224616   108.95623253   285.50677761
 H    118 117 116     2.064330888020   107.13055315    73.77416269
 H    119 118 117     2.058434675609   107.82415517    68.77593812
 H    119 118 117     2.066736771207   107.78242749   184.12515074
 H    120 115 114     1.790700227994   108.40637901   186.50646570
 H    121 116 115     1.796094869518   110.88877446   156.62326481
 H    124 119 118     1.787567769317   111.84997093   297.63161996
 C    134 124 119     6.302408761688   168.37347825   207.98299141
 C    135 134 124     2.644882978091   120.13439068   134.90123085
 N    135 134 124     2.625092026608    97.50625019   249.37758738
 N    136 135 134     2.637692693786   107.54838306   110.66955937
 C    138 136 135     2.614826780311   108.88819675   355.98200498
 H     46  45  44     2.052241657493   108.62307199    57.63374734
 H     46  45  44     2.056019751307   106.86072413   301.92552529
 C    135 134 124     2.604689979181    58.73081797    24.10379906
 C    136 135 134     2.605578717503   120.72012200   291.50282319
 C    137 135 134     2.731742063126   126.87485644    59.09714668
 H    104 103   1     2.060636643272   108.49135312   178.32155058
 H    144 137 135     2.053463966091   108.51066973    18.82780650
 H    144 137 135     2.049891466734   108.73821002   134.27609344
 O     25  24  23     2.630728237306   108.12889317   183.14480351
 H     25  24  23     2.065189264382   108.21536021    63.25144958
 H    148  25  24     1.796939965045   110.05837350   180.52282226
 N    139 138 136     2.389145986835   124.54480498   185.82055491
 H    151 139 138     1.893389849650   112.93412507   178.43790336
 C    143 136 135     2.643836607589   117.96449502   358.76739261
 C    153 143 136     2.613988451886   121.17694291     0.44964779
 H    153 143 136     2.044185788092   119.00101344   180.17706488
 H    143 136 135     2.040240526242   121.86210325   177.55277725
 H    154 153 143     2.044268268688   119.93993351   179.83615452
 H    142 135 134     2.042257967082   121.50962897   289.13008178

---------------------
BASIS SET INFORMATION
---------------------
There are 4 groups of distinct atoms

 Group   1 Type H   : 4s1p contracted to 2s1p pattern {31/1}
 Group   2 Type C   : 7s4p1d contracted to 3s2p1d pattern {511/31/1}
 Group   3 Type O   : 7s4p1d contracted to 3s2p1d pattern {511/31/1}
 Group   4 Type N   : 7s4p1d contracted to 3s2p1d pattern {511/31/1}

Atom   0H    basis set group =>   1
Atom   1C    basis set group =>   2
Atom   2C    basis set group =>   2
Atom   3C    basis set group =>   2
Atom   4C    basis set group =>   2
Atom   5C    basis set group =>   2
Atom   6C    basis set group =>   2
Atom   7O    basis set group =>   3
Atom   8O    basis set group =>   3
Atom   9O    basis set group =>   3
Atom  10O    basis set group =>   3
Atom  11O    basis set group =>   3
Atom  12H    basis set group =>   1
Atom  13H    basis set group =>   1
Atom  14H    basis set group =>   1
Atom  15H    basis set group =>   1
Atom  16H    basis set group =>   1
Atom  17H    basis set group =>   1
Atom  18H    basis set group =>   1
Atom  19H    basis set group =>   1
Atom  20H    basis set group =>   1
Atom  21H    basis set group =>   1
Atom  22C    basis set group =>   2
Atom  23C    basis set group =>   2
Atom  24C    basis set group =>   2
Atom  25C    basis set group =>   2
Atom  26C    basis set group =>   2
Atom  27C    basis set group =>   2
Atom  28O    basis set group =>   3
Atom  29O    basis set group =>   3
Atom  30O    basis set group =>   3
Atom  31O    basis set group =>   3
Atom  32H    basis set group =>   1
Atom  33H    basis set group =>   1
Atom  34H    basis set group =>   1
Atom  35H    basis set group =>   1
Atom  36H    basis set group =>   1
Atom  37H    basis set group =>   1
Atom  38H    basis set group =>   1
Atom  39H    basis set group =>   1
Atom  40C    basis set group =>   2
Atom  41C    basis set group =>   2
Atom  42C    basis set group =>   2
Atom  43C    basis set group =>   2
Atom  44C    basis set group =>   2
Atom  45C    basis set group =>   2
Atom  46O    basis set group =>   3
Atom  47O    basis set group =>   3
Atom  48O    basis set group =>   3
Atom  49O    basis set group =>   3
Atom  50H    basis set group =>   1
Atom  51H    basis set group =>   1
Atom  52H    basis set group =>   1
Atom  53H    basis set group =>   1
Atom  54H    basis set group =>   1
Atom  55H    basis set group =>   1
Atom  56H    basis set group =>   1
Atom  57C    basis set group =>   2
Atom  58C    basis set group =>   2
Atom  59C    basis set group =>   2
Atom  60C    basis set group =>   2
Atom  61C    basis set group =>   2
Atom  62C    basis set group =>   2
Atom  63O    basis set group =>   3
Atom  64O    basis set group =>   3
Atom  65O    basis set group =>   3
Atom  66O    basis set group =>   3
Atom  67O    basis set group =>   3
Atom  68H    basis set group =>   1
Atom  69H    basis set group =>   1
Atom  70H    basis set group =>   1
Atom  71H    basis set group =>   1
Atom  72H    basis set group =>   1
Atom  73H    basis set group =>   1
Atom  74H    basis set group =>   1
Atom  75H    basis set group =>   1
Atom  76H    basis set group =>   1
Atom  77H    basis set group =>   1
Atom  78C    basis set group =>   2
Atom  79C    basis set group =>   2
Atom  80C    basis set group =>   2
Atom  81C    basis set group =>   2
Atom  82C    basis set group =>   2
Atom  83C    basis set group =>   2
Atom  84O    basis set group =>   3
Atom  85O    basis set group =>   3
Atom  86O    basis set group =>   3
Atom  87O    basis set group =>   3
Atom  88O    basis set group =>   3
Atom  89H    basis set group =>   1
Atom  90H    basis set group =>   1
Atom  91H    basis set group =>   1
Atom  92H    basis set group =>   1
Atom  93H    basis set group =>   1
Atom  94H    basis set group =>   1
Atom  95H    basis set group =>   1
Atom  96H    basis set group =>   1
Atom  97H    basis set group =>   1
Atom  98H    basis set group =>   1
Atom  99C    basis set group =>   2
Atom 100C    basis set group =>   2
Atom 101C    basis set group =>   2
Atom 102C    basis set group =>   2
Atom 103C    basis set group =>   2
Atom 104O    basis set group =>   3
Atom 105O    basis set group =>   3
Atom 106O    basis set group =>   3
Atom 107O    basis set group =>   3
Atom 108H    basis set group =>   1
Atom 109H    basis set group =>   1
Atom 110H    basis set group =>   1
Atom 111H    basis set group =>   1
Atom 112H    basis set group =>   1
Atom 113C    basis set group =>   2
Atom 114C    basis set group =>   2
Atom 115C    basis set group =>   2
Atom 116C    basis set group =>   2
Atom 117C    basis set group =>   2
Atom 118C    basis set group =>   2
Atom 119O    basis set group =>   3
Atom 120O    basis set group =>   3
Atom 121O    basis set group =>   3
Atom 122O    basis set group =>   3
Atom 123O    basis set group =>   3
Atom 124H    basis set group =>   1
Atom 125H    basis set group =>   1
Atom 126H    basis set group =>   1
Atom 127H    basis set group =>   1
Atom 128H    basis set group =>   1
Atom 129H    basis set group =>   1
Atom 130H    basis set group =>   1
Atom 131H    basis set group =>   1
Atom 132H    basis set group =>   1
Atom 133H    basis set group =>   1
Atom 134C    basis set group =>   2
Atom 135C    basis set group =>   2
Atom 136N    basis set group =>   4
Atom 137N    basis set group =>   4
Atom 138C    basis set group =>   2
Atom 139H    basis set group =>   1
Atom 140H    basis set group =>   1
Atom 141C    basis set group =>   2
Atom 142C    basis set group =>   2
Atom 143C    basis set group =>   2
Atom 144H    basis set group =>   1
Atom 145H    basis set group =>   1
Atom 146H    basis set group =>   1
Atom 147O    basis set group =>   3
Atom 148H    basis set group =>   1
Atom 149H    basis set group =>   1
Atom 150N    basis set group =>   4
Atom 151H    basis set group =>   1
Atom 152C    basis set group =>   2
Atom 153C    basis set group =>   2
Atom 154H    basis set group =>   1
Atom 155H    basis set group =>   1
Atom 156H    basis set group =>   1
Atom 157H    basis set group =>   1


           ************************************************************
           *        Program running with 96 parallel MPI-processes    *
           *              working on a common directory               *
           ************************************************************
------------------------------------------------------------------------------
                           ORCA GTO INTEGRAL CALCULATION
------------------------------------------------------------------------------
------------------------------------------------------------------------------
                   ___                                                        
                  /   \      - P O W E R E D   B Y -                         
                 /     \                                                     
                 |  |  |   _    _      __       _____    __    __             
                 |  |  |  | |  | |    /  \     |  _  \  |  |  /  |          
                  \  \/   | |  | |   /    \    | | | |  |  | /  /          
                 / \  \   | |__| |  /  /\  \   | |_| |  |  |/  /          
                |  |  |   |  __  | /  /__\  \  |    /   |      \           
                |  |  |   | |  | | |   __   |  |    \   |  |\   \          
                \     /   | |  | | |  |  |  |  | |\  \  |  | \   \       
                 \___/    |_|  |_| |__|  |__|  |_| \__\ |__|  \__/        
                                                                              
                      - O R C A' S   B I G   F R I E N D -                    
                                      &                                       
                       - I N T E G R A L  F E E D E R -                       
                                                                              
 v1 FN, 2020, v2 2021                                                         
------------------------------------------------------------------------------


Reading SHARK input file bBiCyDNH_orca.SHARKINP.tmp ... ok
----------------------
SHARK INTEGRAL PACKAGE
----------------------

Number of atoms                             ...    158
Number of basis functions                   ...   1555
Number of shells                            ...    729
Maximum angular momentum                    ...      2
Integral batch strategy                     ... SHARK/LIBINT Hybrid
RI-J (if used) integral strategy            ... SPLIT-RIJ (Revised 2003 algorithm where possible)
Printlevel                                  ...      1
Contraction scheme used                     ... SEGMENTED contraction
Coulomb Range Separation                    ... NOT USED
Exchange Range Separation                   ... NOT USED
Finite Nucleus Model                        ... NOT USED
Auxiliary Coulomb fitting basis             ... NOT available
Auxiliary J/K fitting basis                 ... NOT available
Auxiliary Correlation fitting basis         ... NOT available
Auxiliary 'external' fitting basis          ... NOT available
Integral threshold                          ...     1.000000e-10
Primitive cut-off                           ...     1.000000e-11
Primitive pair pre-selection threshold      ...     1.000000e-11

Calculating pre-screening integrals         ... done (  0.8 sec) Dimension = 729
Organizing shell pair data                  ... done (  0.6 sec)
Shell pair information
Total number of shell pairs                 ...    266085
Shell pairs after pre-screening             ...     98476
Total number of primitive shell pairs       ...    961129
Primitive shell pairs kept                  ...    197776
          la=0 lb=0:  32612 shell pairs
          la=1 lb=0:  37811 shell pairs
          la=1 lb=1:  11000 shell pairs
          la=2 lb=0:  10497 shell pairs
          la=2 lb=1:   5850 shell pairs
          la=2 lb=2:    706 shell pairs

Calculating one electron integrals          ... done (  0.2 sec)
Calculating Nuclear repulsion               ... done (  0.0 sec) ENN=  18767.224540257645 Eh

SHARK setup successfully completed in   1.9 seconds

Maximum memory used throughout the entire GTOINT-calculation: 150.5 MB


           ************************************************************
           *        Program running with 96 parallel MPI-processes    *
           *              working on a common directory               *
           ************************************************************
-------------------------------------------------------------------------------
                                 ORCA SCF
-------------------------------------------------------------------------------

------------
SCF SETTINGS
------------
Hamiltonian:
 Ab initio Hamiltonian  Method          .... Hartree-Fock(GTOs)


General Settings:
 Integral files         IntName         .... bBiCyDNH_orca
 Hartree-Fock type      HFTyp           .... RHF
 Total Charge           Charge          ....    0
 Multiplicity           Mult            ....    1
 Number of Electrons    NEL             ....  652
 Basis Dimension        Dim             .... 1555
 Nuclear Repulsion      ENuc            ....  18767.2245402576 Eh

Convergence Acceleration:
 DIIS                   CNVDIIS         .... on
   Start iteration      DIISMaxIt       ....    12
   Startup error        DIISStart       ....  0.200000
   # of expansion vecs  DIISMaxEq       ....     5
   Bias factor          DIISBfac        ....   1.050
   Max. coefficient     DIISMaxC        ....  10.000
 Trust-Rad. Augm. Hess. CNVTRAH         .... auto
   Auto Start mean grad. ratio tolernc. ....  1.125000
   Auto Start start iteration           ....    20
   Auto Start num. interpolation iter.  ....    10
   Max. Number of Micro iterations      ....    16
   Max. Number of Macro iterations      .... Maxiter - #DIIS iter
   Number of Davidson start vectors     ....     2
   Converg. threshold I  (grad. norm)   ....   5.000e-05
   Converg. threshold II (energy diff.) ....   1.000e-06
   Grad. Scal. Fac. for Micro threshold ....   0.100
   Minimum threshold for Micro iter.    ....   0.010
   NR start threshold (gradient norm)   ....   0.001
   Initial trust radius                 ....   0.400
   Minimum AH scaling param. (alpha)    ....   1.000
   Maximum AH scaling param. (alpha)    .... 1000.000
   Orbital update algorithm             .... Taylor
   White noise on init. David. guess    .... on
   Maximum white noise                  ....   0.010
   Quad. conv. algorithm                .... NR
 SOSCF                  CNVSOSCF        .... on
   Start iteration      SOSCFMaxIt      ....   150
   Startup grad/error   SOSCFStart      ....  0.003300
 Level Shifting         CNVShift        .... on
   Level shift para.    LevelShift      ....    0.2500
   Turn off err/grad.   ShiftErr        ....    0.0010
 Zerner damping         CNVZerner       .... off
 Static damping         CNVDamp         .... on
   Fraction old density DampFac         ....    0.7000
   Max. Damping (<1)    DampMax         ....    0.9800
   Min. Damping (>=0)   DampMin         ....    0.0000
   Turn off err/grad.   DampErr         ....    0.1000
 Fernandez-Rico         CNVRico         .... off

SCF Procedure:
 Maximum # iterations   MaxIter         ....   250
 SCF integral mode      SCFMode         .... Direct
   Integral package                     .... SHARK and LIBINT hybrid scheme
 Reset frequency        DirectResetFreq ....    20
 Integral Threshold     Thresh          ....  1.000e-10 Eh
 Primitive CutOff       TCut            ....  1.000e-11 Eh

Convergence Tolerance:
 Convergence Check Mode ConvCheckMode   .... Total+1el-Energy
 Convergence forced     ConvForced      .... 0
 Energy Change          TolE            ....  1.000e-06 Eh
 1-El. energy change                    ....  1.000e-03 Eh
 Orbital Gradient       TolG            ....  5.000e-05
 Orbital Rotation angle TolX            ....  5.000e-05
 DIIS Error             TolErr          ....  1.000e-06


Diagonalization of the overlap matrix:
Smallest eigenvalue                        ... 2.005e-04
Time for diagonalization                   ...    0.539 sec
Threshold for overlap eigenvalues          ... 1.000e-08
Number of eigenvalues below threshold      ... 0
Time for construction of square roots      ...    0.747 sec
Total time needed                          ...    1.303 sec

Time for model grid setup =    1.163 sec

------------------------------
INITIAL GUESS: MODEL POTENTIAL
------------------------------
Loading Hartree-Fock densities                     ... done
Calculating cut-offs                               ... done
Initializing the effective Hamiltonian             ... done
Setting up the integral package (SHARK)            ... done
Starting the Coulomb interaction                   ... done (   0.7 sec)
Reading the grid                                   ... done
Mapping shells                                     ... done
Starting the XC term evaluation                    ... done (   0.1 sec)
Transforming the Hamiltonian                       ... done (   0.4 sec)
Diagonalizing the Hamiltonian                      ... done (   0.5 sec)
Back transforming the eigenvectors                 ... done (   0.1 sec)
Now organizing SCF variables                       ... done
                      ------------------
                      INITIAL GUESS DONE (   3.4 sec)
                      ------------------
Hirshfeld charges requested but no grid available - making one
-------------------
DFT GRID GENERATION
-------------------

General Integration Accuracy     IntAcc      ... 4.388
Radial Grid Type                 RadialGrid  ... OptM3 with GC (2021)
Angular Grid (max. ang.)         AngularGrid ... 4 (Lebedev-302)
Angular grid pruning method      GridPruning ... 4 (adaptive)
Weight generation scheme         WeightScheme... Becke
Basis function cutoff            BFCut       ... 1.0000e-10
Integration weight cutoff        WCut        ... 1.0000e-14
Angular grids for H and He will be reduced by one unit
Partially contracted basis set               ... off
Rotationally invariant grid construction     ... off

Total number of grid points                  ...   729172
Total number of batches                      ...    11473
Average number of points per batch           ...       63
Average number of grid points per atom       ...     4615
Time for grid setup =    4.979 sec

--------------
SCF ITERATIONS
--------------
ITER       Energy         Delta-E        Max-DP      RMS-DP      [F,P]     Damp
               ***  Starting incremental Fock matrix formation  ***
  0  -4525.9710329857   0.000000000000 0.07812971  0.00080275  0.2828366 0.7000
  1  -4526.7818803795  -0.810847393797 0.05742272  0.00061392  0.1749032 0.7000
                               ***Turning on DIIS***
  2  -4527.2795867174  -0.497706337919 0.14068231  0.00140877  0.0985419 0.0000
  3  -4524.5662987910   2.713287926414 0.05071342  0.00033828  0.0557650 0.0000
  4  -4529.1117671991  -4.545468408098 0.00962235  0.00011425  0.0094211 0.0000
                      *** Initiating the SOSCF procedure ***
                           *** Shutting down DIIS ***
                      *** Re-Reading the Fockian *** 
                      *** Removing any level shift *** 
ITER      Energy       Delta-E        Grad      Rot      Max-DP    RMS-DP
  5  -4528.36036633   0.7514008642  0.001320  0.001320  0.004662  0.000044
               *** Restarting incremental Fock matrix formation ***
  6  -4528.36068498  -0.0003186420  0.001215  0.002555  0.003021  0.000020
  7  -4528.36082494  -0.0001399623  0.000366  0.001694  0.002099  0.000017
  8  -4528.36085631  -0.0000313745  0.000360  0.000580  0.000724  0.000004
  9  -4528.36086129  -0.0000049812  0.000144  0.000299  0.000194  0.000001
 10  -4528.36086181  -0.0000005152  0.000052  0.000212  0.000102  0.000001
 11  -4528.36086180   0.0000000127  0.000020  0.000094  0.000049  0.000000
                  ***Gradient check signals convergence***
              ***Rediagonalizing the Fockian in SOSCF/NRSCF***

               *****************************************************
               *                     SUCCESS                       *
               *           SCF CONVERGED AFTER  12 CYCLES          *
               *****************************************************


----------------
TOTAL SCF ENERGY
----------------

Total Energy       :        -4528.36086106 Eh         -123222.96356 eV

Components:
Nuclear Repulsion  :        18767.22454026 Eh          510682.14232 eV
Electronic Energy  :       -23295.58540132 Eh         -633905.10588 eV
One Electron Energy:       -43665.93616892 Eh        -1188210.53061 eV
Two Electron Energy:        20370.35076760 Eh          554305.42473 eV

Virial components:
Potential Energy   :        -9043.20751872 Eh         -246078.18696 eV
Kinetic Energy     :         4514.84665766 Eh          122855.22339 eV
Virial Ratio       :            2.00299328


---------------
SCF CONVERGENCE
---------------

  Last Energy change         ...    7.3653e-07  Tolerance :   1.0000e-06
  Last MAX-Density change    ...    1.8009e-05  Tolerance :   1.0000e-05
  Last RMS-Density change    ...    1.1515e-07  Tolerance :   1.0000e-06
  Last Orbital Gradient      ...    7.3992e-06  Tolerance :   5.0000e-05
  Last Orbital Rotation      ...    3.3185e-05  Tolerance :   5.0000e-05

             **** THE GBW FILE WAS UPDATED (bBiCyDNH_orca.gbw) ****
             **** DENSITY bBiCyDNH_orca.scfp WAS UPDATED ****
             **** ENERGY FILE WAS UPDATED (bBiCyDNH_orca.en.tmp) ****
             **** THE GBW FILE WAS UPDATED (bBiCyDNH_orca.gbw) ****
             **** DENSITY bBiCyDNH_orca.scfp WAS UPDATED ****
----------------
ORBITAL ENERGIES
----------------

  NO   OCC          E(Eh)            E(eV) 
   0   2.0000     -20.579633      -560.0003 
   1   2.0000     -20.579388      -559.9936 
   2   2.0000     -20.578612      -559.9725 
   3   2.0000     -20.578506      -559.9696 
   4   2.0000     -20.575630      -559.8914 
   5   2.0000     -20.573731      -559.8397 
   6   2.0000     -20.573480      -559.8328 
   7   2.0000     -20.573123      -559.8231 
   8   2.0000     -20.572982      -559.8193 
   9   2.0000     -20.572980      -559.8192 
  10   2.0000     -20.572916      -559.8175 
  11   2.0000     -20.572542      -559.8073 
  12   2.0000     -20.569536      -559.7255 
  13   2.0000     -20.568724      -559.7034 
  14   2.0000     -20.566010      -559.6296 
  15   2.0000     -20.563966      -559.5740 
  16   2.0000     -20.563088      -559.5501 
  17   2.0000     -20.561992      -559.5202 
  18   2.0000     -20.559515      -559.4529 
  19   2.0000     -20.557492      -559.3978 
  20   2.0000     -20.557254      -559.3913 
  21   2.0000     -20.555857      -559.3533 
  22   2.0000     -20.554408      -559.3139 
  23   2.0000     -20.554030      -559.3036 
  24   2.0000     -20.553733      -559.2955 
  25   2.0000     -20.553382      -559.2860 
  26   2.0000     -20.549712      -559.1861 
  27   2.0000     -20.547067      -559.1141 
  28   2.0000     -20.546963      -559.1113 
  29   2.0000     -20.546368      -559.0951 
  30   2.0000     -20.537169      -558.8448 
  31   2.0000     -20.536795      -558.8346 
  32   2.0000     -20.525970      -558.5401 
  33   2.0000     -15.601842      -424.5477 
  34   2.0000     -15.595581      -424.3773 
  35   2.0000     -15.506621      -421.9566 
  36   2.0000     -11.356784      -309.0338 
  37   2.0000     -11.351811      -308.8985 
  38   2.0000     -11.349956      -308.8480 
  39   2.0000     -11.349257      -308.8290 
  40   2.0000     -11.348774      -308.8158 
  41   2.0000     -11.345888      -308.7373 
  42   2.0000     -11.336229      -308.4745 
  43   2.0000     -11.331671      -308.3505 
  44   2.0000     -11.302944      -307.5687 
  45   2.0000     -11.301267      -307.5231 
  46   2.0000     -11.300088      -307.4910 
  47   2.0000     -11.299756      -307.4820 
  48   2.0000     -11.298766      -307.4551 
  49   2.0000     -11.295533      -307.3671 
  50   2.0000     -11.295096      -307.3552 
  51   2.0000     -11.295047      -307.3539 
  52   2.0000     -11.293655      -307.3160 
  53   2.0000     -11.291554      -307.2588 
  54   2.0000     -11.291436      -307.2556 
  55   2.0000     -11.291426      -307.2553 
  56   2.0000     -11.290628      -307.2336 
  57   2.0000     -11.289985      -307.2161 
  58   2.0000     -11.289527      -307.2036 
  59   2.0000     -11.285192      -307.0857 
  60   2.0000     -11.285126      -307.0839 
  61   2.0000     -11.284387      -307.0638 
  62   2.0000     -11.283888      -307.0502 
  63   2.0000     -11.283314      -307.0346 
  64   2.0000     -11.282185      -307.0039 
  65   2.0000     -11.281538      -306.9863 
  66   2.0000     -11.281072      -306.9736 
  67   2.0000     -11.280415      -306.9557 
  68   2.0000     -11.279208      -306.9229 
  69   2.0000     -11.277979      -306.8894 
  70   2.0000     -11.277575      -306.8784 
  71   2.0000     -11.277087      -306.8652 
  72   2.0000     -11.276500      -306.8492 
  73   2.0000     -11.276303      -306.8438 
  74   2.0000     -11.276005      -306.8357 
  75   2.0000     -11.275419      -306.8198 
  76   2.0000     -11.272445      -306.7388 
  77   2.0000     -11.269720      -306.6647 
[...]
freq.     531.35  E(vib)   ...       0.13 
freq.     544.15  E(vib)   ...       0.12 
freq.     546.90  E(vib)   ...       0.12 
freq.     549.87  E(vib)   ...       0.12 
freq.     550.83  E(vib)   ...       0.12 
freq.     558.25  E(vib)   ...       0.12 
freq.     559.31  E(vib)   ...       0.12 
freq.     560.88  E(vib)   ...       0.11 
freq.     573.95  E(vib)   ...       0.11 
freq.     575.18  E(vib)   ...       0.11 
freq.     577.09  E(vib)   ...       0.11 
freq.     595.81  E(vib)   ...       0.10 
freq.     598.86  E(vib)   ...       0.10 
freq.     604.30  E(vib)   ...       0.10 
freq.     608.20  E(vib)   ...       0.10 
freq.     630.21  E(vib)   ...       0.09 
freq.     632.24  E(vib)   ...       0.09 
freq.     637.75  E(vib)   ...       0.09 
freq.     642.61  E(vib)   ...       0.09 
freq.     647.78  E(vib)   ...       0.09 
freq.     649.06  E(vib)   ...       0.08 
freq.     652.32  E(vib)   ...       0.08 
freq.     656.92  E(vib)   ...       0.08 
freq.     660.05  E(vib)   ...       0.08 
freq.     662.47  E(vib)   ...       0.08 
freq.     668.92  E(vib)   ...       0.08 
freq.     672.97  E(vib)   ...       0.08 
freq.     676.35  E(vib)   ...       0.08 
freq.     682.93  E(vib)   ...       0.08 
freq.     696.02  E(vib)   ...       0.07 
freq.     701.73  E(vib)   ...       0.07 
freq.     705.24  E(vib)   ...       0.07 
freq.     706.70  E(vib)   ...       0.07 
freq.     717.71  E(vib)   ...       0.07 
freq.     723.00  E(vib)   ...       0.07 
freq.     729.18  E(vib)   ...       0.06 
freq.     733.75  E(vib)   ...       0.06 
freq.     737.63  E(vib)   ...       0.06 
freq.     743.85  E(vib)   ...       0.06 
freq.     748.75  E(vib)   ...       0.06 
freq.     796.53  E(vib)   ...       0.05 
freq.     807.80  E(vib)   ...       0.05 
freq.     820.06  E(vib)   ...       0.05 
freq.     826.66  E(vib)   ...       0.04 
freq.     830.63  E(vib)   ...       0.04 
freq.     838.92  E(vib)   ...       0.04 
freq.     841.00  E(vib)   ...       0.04 
freq.     843.15  E(vib)   ...       0.04 
freq.     859.82  E(vib)   ...       0.04 
freq.     864.57  E(vib)   ...       0.04 
freq.     880.10  E(vib)   ...       0.04 
freq.     883.39  E(vib)   ...       0.04 
freq.     899.44  E(vib)   ...       0.03 
freq.     918.91  E(vib)   ...       0.03 
freq.     946.44  E(vib)   ...       0.03 
freq.     954.72  E(vib)   ...       0.03 
freq.     956.45  E(vib)   ...       0.03 
freq.     957.76  E(vib)   ...       0.03 
freq.     965.95  E(vib)   ...       0.03 
freq.     980.66  E(vib)   ...       0.02 
freq.     985.77  E(vib)   ...       0.02 
freq.     991.46  E(vib)   ...       0.02 
freq.     994.32  E(vib)   ...       0.02 
freq.    1007.39  E(vib)   ...       0.02 
freq.    1014.05  E(vib)   ...       0.02 
freq.    1030.07  E(vib)   ...       0.02 
freq.    1039.28  E(vib)   ...       0.02 
freq.    1041.33  E(vib)   ...       0.02 
freq.    1044.55  E(vib)   ...       0.02 
freq.    1049.74  E(vib)   ...       0.02 
freq.    1074.48  E(vib)   ...       0.02 
freq.    1092.16  E(vib)   ...       0.02 
freq.    1094.25  E(vib)   ...       0.02 
freq.    1097.36  E(vib)   ...       0.02 
freq.    1114.43  E(vib)   ...       0.01 
freq.    1116.77  E(vib)   ...       0.01 
freq.    1116.97  E(vib)   ...       0.01 
freq.    1122.34  E(vib)   ...       0.01 
freq.    1125.83  E(vib)   ...       0.01 
freq.    1126.30  E(vib)   ...       0.01 
freq.    1127.85  E(vib)   ...       0.01 
freq.    1136.88  E(vib)   ...       0.01 
freq.    1140.48  E(vib)   ...       0.01 
freq.    1141.73  E(vib)   ...       0.01 
freq.    1145.85  E(vib)   ...       0.01 
freq.    1149.17  E(vib)   ...       0.01 
freq.    1151.15  E(vib)   ...       0.01 
freq.    1158.17  E(vib)   ...       0.01 
freq.    1160.28  E(vib)   ...       0.01 
freq.    1165.09  E(vib)   ...       0.01 
freq.    1170.40  E(vib)   ...       0.01 
freq.    1173.00  E(vib)   ...       0.01 
freq.    1175.12  E(vib)   ...       0.01 
freq.    1176.97  E(vib)   ...       0.01 
freq.    1183.20  E(vib)   ...       0.01 
freq.    1187.54  E(vib)   ...       0.01 
freq.    1190.05  E(vib)   ...       0.01 
freq.    1191.60  E(vib)   ...       0.01 
freq.    1193.28  E(vib)   ...       0.01 
freq.    1197.02  E(vib)   ...       0.01 
freq.    1199.36  E(vib)   ...       0.01 
freq.    1202.82  E(vib)   ...       0.01 
freq.    1205.84  E(vib)   ...       0.01 
freq.    1207.31  E(vib)   ...       0.01 
freq.    1210.69  E(vib)   ...       0.01 
freq.    1211.84  E(vib)   ...       0.01 
freq.    1214.05  E(vib)   ...       0.01 
freq.    1218.58  E(vib)   ...       0.01 
freq.    1221.67  E(vib)   ...       0.01 
freq.    1223.33  E(vib)   ...       0.01 
freq.    1224.61  E(vib)   ...       0.01 
freq.    1227.38  E(vib)   ...       0.01 
freq.    1230.56  E(vib)   ...       0.01 
freq.    1233.81  E(vib)   ...       0.01 
freq.    1236.18  E(vib)   ...       0.01 
freq.    1237.04  E(vib)   ...       0.01 
freq.    1238.41  E(vib)   ...       0.01 
freq.    1240.97  E(vib)   ...       0.01 
freq.    1243.27  E(vib)   ...       0.01 
freq.    1247.30  E(vib)   ...       0.01 
freq.    1249.31  E(vib)   ...       0.01 
freq.    1252.04  E(vib)   ...       0.01 
freq.    1254.33  E(vib)   ...       0.01 
freq.    1254.89  E(vib)   ...       0.01 
freq.    1256.13  E(vib)   ...       0.01 
freq.    1258.55  E(vib)   ...       0.01 
freq.    1259.24  E(vib)   ...       0.01 
freq.    1262.43  E(vib)   ...       0.01 
freq.    1262.97  E(vib)   ...       0.01 
freq.    1264.78  E(vib)   ...       0.01 
freq.    1266.44  E(vib)   ...       0.01 
freq.    1269.25  E(vib)   ...       0.01 
freq.    1270.38  E(vib)   ...       0.01 
freq.    1273.21  E(vib)   ...       0.01 
freq.    1275.42  E(vib)   ...       0.01 
freq.    1277.62  E(vib)   ...       0.01 
freq.    1280.21  E(vib)   ...       0.01 
freq.    1280.83  E(vib)   ...       0.01 
freq.    1282.88  E(vib)   ...       0.01 
freq.    1283.70  E(vib)   ...       0.01 
freq.    1287.26  E(vib)   ...       0.01 
freq.    1292.05  E(vib)   ...       0.01 
freq.    1297.41  E(vib)   ...       0.01 
freq.    1304.25  E(vib)   ...       0.01 
freq.    1304.67  E(vib)   ...       0.01 
freq.    1315.06  E(vib)   ...       0.01 
freq.    1315.74  E(vib)   ...       0.01 
freq.    1319.26  E(vib)   ...       0.01 
freq.    1322.06  E(vib)   ...       0.01 
freq.    1324.04  E(vib)   ...       0.01 
freq.    1326.13  E(vib)   ...       0.01 
freq.    1328.83  E(vib)   ...       0.01 
freq.    1329.92  E(vib)   ...       0.01 
freq.    1330.96  E(vib)   ...       0.01 
freq.    1332.41  E(vib)   ...       0.01 
freq.    1336.44  E(vib)   ...       0.01 
freq.    1340.78  E(vib)   ...       0.01 
freq.    1341.44  E(vib)   ...       0.01 
freq.    1344.71  E(vib)   ...       0.01 
freq.    1348.39  E(vib)   ...       0.01 
freq.    1350.12  E(vib)   ...       0.01 
freq.    1350.98  E(vib)   ...       0.01 
freq.    1353.70  E(vib)   ...       0.01 
freq.    1355.04  E(vib)   ...       0.01 
freq.    1356.07  E(vib)   ...       0.01 
freq.    1361.12  E(vib)   ...       0.01 
freq.    1362.08  E(vib)   ...       0.01 
freq.    1365.66  E(vib)   ...       0.01 
freq.    1371.89  E(vib)   ...       0.01 
freq.    1374.82  E(vib)   ...       0.01 
freq.    1376.65  E(vib)   ...       0.01 
freq.    1377.17  E(vib)   ...       0.01 
freq.    1383.50  E(vib)   ...       0.00 
freq.    1384.62  E(vib)   ...       0.00 
freq.    1385.13  E(vib)   ...       0.00 
freq.    1386.14  E(vib)   ...       0.00 
freq.    1397.26  E(vib)   ...       0.00 
freq.    1398.40  E(vib)   ...       0.00 
freq.    1408.92  E(vib)   ...       0.00 
freq.    1410.89  E(vib)   ...       0.00 
freq.    1411.23  E(vib)   ...       0.00 
freq.    1416.96  E(vib)   ...       0.00 
freq.    1418.13  E(vib)   ...       0.00 
freq.    1433.80  E(vib)   ...       0.00 
freq.    1435.53  E(vib)   ...       0.00 
freq.    1440.91  E(vib)   ...       0.00 
freq.    1445.14  E(vib)   ...       0.00 
freq.    1446.54  E(vib)   ...       0.00 
freq.    1450.86  E(vib)   ...       0.00 
freq.    1451.68  E(vib)   ...       0.00 
freq.    1453.61  E(vib)   ...       0.00 
freq.    1465.12  E(vib)   ...       0.00 
freq.    1465.39  E(vib)   ...       0.00 
freq.    1466.07  E(vib)   ...       0.00 
freq.    1476.17  E(vib)   ...       0.00 
freq.    1478.29  E(vib)   ...       0.00 
freq.    1478.52  E(vib)   ...       0.00 
freq.    1479.81  E(vib)   ...       0.00 
freq.    1480.58  E(vib)   ...       0.00 
freq.    1484.81  E(vib)   ...       0.00 
freq.    1486.13  E(vib)   ...       0.00 
freq.    1486.32  E(vib)   ...       0.00 
freq.    1489.08  E(vib)   ...       0.00 
freq.    1490.43  E(vib)   ...       0.00 
freq.    1491.62  E(vib)   ...       0.00 
freq.    1496.70  E(vib)   ...       0.00 
freq.    1497.86  E(vib)   ...       0.00 
freq.    1499.73  E(vib)   ...       0.00 
freq.    1500.93  E(vib)   ...       0.00 
freq.    1505.21  E(vib)   ...       0.00 
freq.    1506.82  E(vib)   ...       0.00 
freq.    1508.81  E(vib)   ...       0.00 
freq.    1513.87  E(vib)   ...       0.00 
freq.    1514.46  E(vib)   ...       0.00 
freq.    1515.72  E(vib)   ...       0.00 
freq.    1516.08  E(vib)   ...       0.00 
freq.    1525.65  E(vib)   ...       0.00 
freq.    1527.48  E(vib)   ...       0.00 
freq.    1529.59  E(vib)   ...       0.00 
freq.    1532.54  E(vib)   ...       0.00 
freq.    1534.57  E(vib)   ...       0.00 
freq.    1535.65  E(vib)   ...       0.00 
freq.    1536.56  E(vib)   ...       0.00 
freq.    1539.17  E(vib)   ...       0.00 
freq.    1540.11  E(vib)   ...       0.00 
freq.    1541.57  E(vib)   ...       0.00 
freq.    1542.40  E(vib)   ...       0.00 
freq.    1551.46  E(vib)   ...       0.00 
freq.    1552.36  E(vib)   ...       0.00 
freq.    1555.45  E(vib)   ...       0.00 
freq.    1560.61  E(vib)   ...       0.00 
freq.    1565.34  E(vib)   ...       0.00 
freq.    1568.07  E(vib)   ...       0.00 
freq.    1569.70  E(vib)   ...       0.00 
freq.    1570.28  E(vib)   ...       0.00 
freq.    1572.95  E(vib)   ...       0.00 
freq.    1575.20  E(vib)   ...       0.00 
freq.    1575.53  E(vib)   ...       0.00 
freq.    1577.35  E(vib)   ...       0.00 
freq.    1578.91  E(vib)   ...       0.00 
freq.    1580.15  E(vib)   ...       0.00 
freq.    1581.03  E(vib)   ...       0.00 
freq.    1581.61  E(vib)   ...       0.00 
freq.    1583.88  E(vib)   ...       0.00 
freq.    1585.95  E(vib)   ...       0.00 
freq.    1588.24  E(vib)   ...       0.00 
freq.    1589.70  E(vib)   ...       0.00 
freq.    1591.69  E(vib)   ...       0.00 
freq.    1593.11  E(vib)   ...       0.00 
freq.    1595.86  E(vib)   ...       0.00 
freq.    1597.96  E(vib)   ...       0.00 
freq.    1600.24  E(vib)   ...       0.00 
freq.    1601.04  E(vib)   ...       0.00 
freq.    1601.85  E(vib)   ...       0.00 
freq.    1602.98  E(vib)   ...       0.00 
freq.    1607.66  E(vib)   ...       0.00 
freq.    1608.13  E(vib)   ...       0.00 
freq.    1610.55  E(vib)   ...       0.00 
freq.    1611.09  E(vib)   ...       0.00 
freq.    1611.74  E(vib)   ...       0.00 
freq.    1621.30  E(vib)   ...       0.00 
freq.    1623.17  E(vib)   ...       0.00 
freq.    1628.05  E(vib)   ...       0.00 
freq.    1628.54  E(vib)   ...       0.00 
freq.    1629.17  E(vib)   ...       0.00 
freq.    1637.52  E(vib)   ...       0.00 
freq.    1642.41  E(vib)   ...       0.00 
freq.    1643.38  E(vib)   ...       0.00 
freq.    1663.76  E(vib)   ...       0.00 
freq.    1806.11  E(vib)   ...       0.00 
freq.    1809.05  E(vib)   ...       0.00 
freq.    1863.22  E(vib)   ...       0.00 
freq.    3182.74  E(vib)   ...       0.00 
freq.    3186.09  E(vib)   ...       0.00 
freq.    3186.22  E(vib)   ...       0.00 
freq.    3188.26  E(vib)   ...       0.00 
freq.    3189.92  E(vib)   ...       0.00 
freq.    3190.09  E(vib)   ...       0.00 
freq.    3191.51  E(vib)   ...       0.00 
freq.    3191.83  E(vib)   ...       0.00 
freq.    3193.78  E(vib)   ...       0.00 
freq.    3193.96  E(vib)   ...       0.00 
freq.    3194.24  E(vib)   ...       0.00 
freq.    3195.29  E(vib)   ...       0.00 
freq.    3197.16  E(vib)   ...       0.00 
freq.    3197.83  E(vib)   ...       0.00 
freq.    3198.37  E(vib)   ...       0.00 
freq.    3198.66  E(vib)   ...       0.00 
freq.    3204.76  E(vib)   ...       0.00 
freq.    3207.00  E(vib)   ...       0.00 
freq.    3212.31  E(vib)   ...       0.00 
freq.    3213.38  E(vib)   ...       0.00 
freq.    3213.47  E(vib)   ...       0.00 
freq.    3215.16  E(vib)   ...       0.00 
freq.    3216.46  E(vib)   ...       0.00 
freq.    3217.10  E(vib)   ...       0.00 
freq.    3221.03  E(vib)   ...       0.00 
freq.    3222.07  E(vib)   ...       0.00 
freq.    3223.91  E(vib)   ...       0.00 
freq.    3240.93  E(vib)   ...       0.00 
freq.    3245.97  E(vib)   ...       0.00 
freq.    3247.69  E(vib)   ...       0.00 
freq.    3248.01  E(vib)   ...       0.00 
freq.    3249.38  E(vib)   ...       0.00 
freq.    3259.69  E(vib)   ...       0.00 
freq.    3259.88  E(vib)   ...       0.00 
freq.    3265.29  E(vib)   ...       0.00 
freq.    3267.62  E(vib)   ...       0.00 
freq.    3270.04  E(vib)   ...       0.00 
freq.    3270.44  E(vib)   ...       0.00 
freq.    3276.30  E(vib)   ...       0.00 
freq.    3276.34  E(vib)   ...       0.00 
freq.    3299.89  E(vib)   ...       0.00 
freq.    3303.39  E(vib)   ...       0.00 
freq.    3303.55  E(vib)   ...       0.00 
freq.    3309.85  E(vib)   ...       0.00 
freq.    3312.57  E(vib)   ...       0.00 
freq.    3328.71  E(vib)   ...       0.00 
freq.    3335.85  E(vib)   ...       0.00 
freq.    3336.83  E(vib)   ...       0.00 
freq.    3338.34  E(vib)   ...       0.00 
freq.    3346.70  E(vib)   ...       0.00 
freq.    3362.44  E(vib)   ...       0.00 
freq.    3374.17  E(vib)   ...       0.00 
freq.    3386.74  E(vib)   ...       0.00 
freq.    3824.61  E(vib)   ...       0.00 
freq.    4057.82  E(vib)   ...       0.00 
freq.    4065.48  E(vib)   ...       0.00 
freq.    4072.37  E(vib)   ...       0.00 
freq.    4072.83  E(vib)   ...       0.00 
freq.    4076.28  E(vib)   ...       0.00 
freq.    4083.18  E(vib)   ...       0.00 
freq.    4108.90  E(vib)   ...       0.00 
freq.    4141.14  E(vib)   ...       0.00 
freq.    4143.10  E(vib)   ...       0.00 
freq.    4143.32  E(vib)   ...       0.00 
freq.    4144.46  E(vib)   ...       0.00 
freq.    4149.93  E(vib)   ...       0.00 
freq.    4150.35  E(vib)   ...       0.00 
freq.    4151.14  E(vib)   ...       0.00 
freq.    4152.10  E(vib)   ...       0.00 
freq.    4153.79  E(vib)   ...       0.00 
freq.    4163.03  E(vib)   ...       0.00 
freq.    4190.89  E(vib)   ...       0.00 
freq.    4195.10  E(vib)   ...       0.00 

------------
INNER ENERGY
------------

The inner energy is: U= E(el) + E(ZPE) + E(vib) + E(rot) + E(trans)
    E(el)   - is the total energy from the electronic structure calculation
              = E(kin-el) + E(nuc-el) + E(el-el) + E(nuc-nuc)
    E(ZPE)  - the the zero temperature vibrational energy from the frequency calculation
    E(vib)  - the the finite temperature correction to E(ZPE) due to population
              of excited vibrational states
    E(rot)  - is the rotational thermal energy
    E(trans)- is the translational thermal energy

Summary of contributions to the inner energy U:
Electronic energy                ...  -4528.36086106 Eh
Zero point energy                ...      1.41571744 Eh     888.37 kcal/mol
Thermal vibrational correction   ...      0.07050977 Eh      44.25 kcal/mol
Thermal rotational correction    ...      0.00141627 Eh       0.89 kcal/mol
Thermal translational correction ...      0.00141627 Eh       0.89 kcal/mol
-----------------------------------------------------------------------
Total thermal energy                  -4526.87180131 Eh


Summary of corrections to the electronic energy:
(perhaps to be used in another calculation)
Total thermal correction                  0.07334231 Eh      46.02 kcal/mol
Non-thermal (ZPE) correction              1.41571744 Eh     888.37 kcal/mol
-----------------------------------------------------------------------
Total correction                          1.48905975 Eh     934.40 kcal/mol


--------
ENTHALPY
--------

The enthalpy is H = U + kB*T
                kB is Boltzmann's constant
Total free energy                 ...  -4526.87180131 Eh 
Thermal Enthalpy correction       ...      0.00094421 Eh       0.59 kcal/mol
-----------------------------------------------------------------------
Total Enthalpy                    ...  -4526.87085710 Eh


Note: Only C1 symmetry has been detected, increase convergence thresholds 
      if your molecule has a higher symmetry. Symmetry factor of 1.0 is   
      used for the rotational entropy correction. 
 

Note: Rotational entropy computed according to Herzberg 
Infrared and Raman Spectra, Chapter V,1, Van Nostrand Reinhold, 1945 
Point Group:  C1, Symmetry Number:   1  
Rotational constants in cm-1:     0.000861     0.000641     0.000477 

Vibrational entropy computed according to the QRRHO of S. Grimme
Chem.Eur.J. 2012 18 9955


-------
ENTROPY
-------

The entropy contributions are T*S = T*(S(el)+S(vib)+S(rot)+S(trans))
     S(el)   - electronic entropy
     S(vib)  - vibrational entropy
     S(rot)  - rotational entropy
     S(trans)- translational entropy
The entropies will be listed as multiplied by the temperature to get
units of energy

Electronic entropy                ...      0.00000000 Eh      0.00 kcal/mol
Vibrational entropy               ...      0.12516448 Eh     78.54 kcal/mol
Rotational entropy                ...      0.01992410 Eh     12.50 kcal/mol
Translational entropy             ...      0.02242794 Eh     14.07 kcal/mol
-----------------------------------------------------------------------
Final entropy term                ...      0.16751652 Eh    105.12 kcal/mol

In case the symmetry of your molecule has not been determined correctly
or in case you have a reason to use a different symmetry number we print 
out the resulting rotational entropy values for sn=1,12 :
 --------------------------------------------------------
|  sn= 1 | S(rot)=       0.01992410 Eh     12.50 kcal/mol|
|  sn= 2 | S(rot)=       0.01926964 Eh     12.09 kcal/mol|
|  sn= 3 | S(rot)=       0.01888681 Eh     11.85 kcal/mol|
|  sn= 4 | S(rot)=       0.01861518 Eh     11.68 kcal/mol|
|  sn= 5 | S(rot)=       0.01840449 Eh     11.55 kcal/mol|
|  sn= 6 | S(rot)=       0.01823235 Eh     11.44 kcal/mol|
|  sn= 7 | S(rot)=       0.01808680 Eh     11.35 kcal/mol|
|  sn= 8 | S(rot)=       0.01796073 Eh     11.27 kcal/mol|
|  sn= 9 | S(rot)=       0.01784952 Eh     11.20 kcal/mol|
|  sn=10 | S(rot)=       0.01775004 Eh     11.14 kcal/mol|
|  sn=11 | S(rot)=       0.01766005 Eh     11.08 kcal/mol|
|  sn=12 | S(rot)=       0.01757789 Eh     11.03 kcal/mol|
 --------------------------------------------------------


-------------------
GIBBS FREE ENERGY
-------------------

The Gibbs free energy is G = H - T*S

Total enthalpy                    ...  -4526.87085710 Eh 
Total entropy correction          ...     -0.16751652 Eh   -105.12 kcal/mol
-----------------------------------------------------------------------
Final Gibbs free energy         ...  -4527.03837362 Eh

For completeness - the Gibbs free energy minus the electronic energy
G-E(el)                           ...      1.32248744 Eh    829.87 kcal/mol


Timings for individual modules:

Sum of individual times         ...    81273.945 sec (=1354.566 min)
GTO integral calculation        ...       15.657 sec (=   0.261 min)   0.0 %
SCF iterations                  ...      353.178 sec (=   5.886 min)   0.4 %
Analytical frequency calculation...    80905.110 sec (=1348.419 min)  99.5 %
                             ****ORCA TERMINATED NORMALLY****
TOTAL RUN TIME: 0 days 22 hours 34 minutes 51 seconds 271 msec
