
                                 *****************
                                 * O   R   C   A *
                                 *****************

                                            #,                                       
                                            ###                                      
                                            ####                                     
                                            #####                                    
                                            ######                                   
                                           ########,                                 
                                     ,,################,,,,,                         
                               ,,#################################,,                 
                          ,,##########################################,,             
                       ,#########################################, ''#####,          
                    ,#############################################,,   '####,        
                  ,##################################################,,,,####,       
                ,###########''''           ''''###############################       
              ,#####''   ,,,,##########,,,,          '''####'''          '####       
            ,##' ,,,,###########################,,,                        '##       
           ' ,,###''''                  '''############,,,                           
         ,,##''                                '''############,,,,        ,,,,,,###''
      ,#''                                            '''#######################'''  
     '                                                          ''''####''''         
             ,#######,   #######,   ,#######,      ##                                
            ,#'     '#,  ##    ##  ,#'     '#,    #''#        ######   ,####,        
            ##       ##  ##   ,#'  ##            #'  '#       #        #'  '#        
            ##       ##  #######   ##           ,######,      #####,   #    #        
            '#,     ,#'  ##    ##  '#,     ,#' ,#      #,         ##   #,  ,#        
             '#######'   ##     ##  '#######'  #'      '#     #####' # '####'        



                  #######################################################
                  #                        -***-                        #
                  #          Department of theory and spectroscopy      #
                  #    Directorship and core code : Frank Neese         #
                  #        Max Planck Institute fuer Kohlenforschung    #
                  #                Kaiser Wilhelm Platz 1               #
                  #                 D-45470 Muelheim/Ruhr               #
                  #                      Germany                        #
                  #                                                     #
                  #                  All rights reserved                #
                  #                        -***-                        #
                  #######################################################


                         Program Version 5.0.1 -  RELEASE  -


 With contributions from (in alphabetic order):
   Daniel Aravena         : Magnetic Suceptibility
   Michael Atanasov       : Ab Initio Ligand Field Theory (pilot matlab implementation)
   Alexander A. Auer      : GIAO ZORA, VPT2 properties, NMR spectrum
   Ute Becker             : Parallelization
   Giovanni Bistoni       : ED, misc. LED, open-shell LED, HFLD
   Martin Brehm           : Molecular dynamics
   Dmytro Bykov           : SCF Hessian
   Vijay G. Chilkuri      : MRCI spin determinant printing, contributions to CSF-ICE
   Dipayan Datta          : RHF DLPNO-CCSD density
   Achintya Kumar Dutta   : EOM-CC, STEOM-CC
   Dmitry Ganyushin       : Spin-Orbit,Spin-Spin,Magnetic field MRCI
   Miquel Garcia          : C-PCM and meta-GGA Hessian, CC/C-PCM, Gaussian charge scheme
   Yang Guo               : DLPNO-NEVPT2, F12-NEVPT2, CIM, IAO-localization
   Andreas Hansen         : Spin unrestricted coupled pair/coupled cluster methods
   Benjamin Helmich-Paris : MC-RPA, TRAH-SCF, COSX integrals
   Lee Huntington         : MR-EOM, pCC
   Robert Izsak           : Overlap fitted RIJCOSX, COSX-SCS-MP3, EOM
   Marcus Kettner         : VPT2
   Christian Kollmar      : KDIIS, OOCD, Brueckner-CCSD(T), CCSD density, CASPT2, CASPT2-K
   Simone Kossmann        : Meta GGA functionals, TD-DFT gradient, OOMP2, MP2 Hessian
   Martin Krupicka        : Initial AUTO-CI
   Lucas Lang             : DCDCAS
   Marvin Lechner         : AUTO-CI (C++ implementation), FIC-MRCC
   Dagmar Lenk            : GEPOL surface, SMD
   Dimitrios Liakos       : Extrapolation schemes; Compound Job, initial MDCI parallelization
   Dimitrios Manganas     : Further ROCIS development; embedding schemes
   Dimitrios Pantazis     : SARC Basis sets
   Anastasios Papadopoulos: AUTO-CI, single reference methods and gradients
   Taras Petrenko         : DFT Hessian,TD-DFT gradient, ASA, ECA, R-Raman, ABS, FL, XAS/XES, NRVS
   Peter Pinski           : DLPNO-MP2, DLPNO-MP2 Gradient
   Christoph Reimann      : Effective Core Potentials
   Marius Retegan         : Local ZFS, SOC
   Christoph Riplinger    : Optimizer, TS searches, QM/MM, DLPNO-CCSD(T), (RO)-DLPNO pert. Triples
   Tobias Risthaus        : Range-separated hybrids, TD-DFT gradient, RPA, STAB
   Michael Roemelt        : Original ROCIS implementation
   Masaaki Saitow         : Open-shell DLPNO-CCSD energy and density
   Barbara Sandhoefer     : DKH picture change effects
   Avijit Sen             : IP-ROCIS
   Kantharuban Sivalingam : CASSCF convergence, NEVPT2, FIC-MRCI
   Bernardo de Souza      : ESD, SOC TD-DFT
   Georgi Stoychev        : AutoAux, RI-MP2 NMR, DLPNO-MP2 response
   Willem Van den Heuvel  : Paramagnetic NMR
   Boris Wezisla          : Elementary symmetry handling
   Frank Wennmohs         : Technical directorship


 We gratefully acknowledge several colleagues who have allowed us to
 interface, adapt or use parts of their codes:
   Stefan Grimme, W. Hujo, H. Kruse, P. Pracht,  : VdW corrections, initial TS optimization,
                  C. Bannwarth, S. Ehlert          DFT functionals, gCP, sTDA/sTD-DF
   Ed Valeev, F. Pavosevic, A. Kumar             : LibInt (2-el integral package), F12 methods
   Garnet Chan, S. Sharma, J. Yang, R. Olivares  : DMRG
   Ulf Ekstrom                                   : XCFun DFT Library
   Mihaly Kallay                                 : mrcc  (arbitrary order and MRCC methods)
   Jiri Pittner, Ondrej Demel                    : Mk-CCSD
   Frank Weinhold                                : gennbo (NPA and NBO analysis)
   Christopher J. Cramer and Donald G. Truhlar   : smd solvation model
   Lars Goerigk                                  : TD-DFT with DH, B97 family of functionals
   V. Asgeirsson, H. Jonsson                     : NEB implementation
   FAccTs GmbH                                   : IRC, NEB, NEB-TS, DLPNO-Multilevel, CI-OPT
                                                   MM, QMMM, 2- and 3-layer-ONIOM, Crystal-QMMM,
                                                   LR-CPCM, SF, NACMEs, symmetry and pop. for TD-DFT,
                                                   nearIR, NL-DFT gradient (VV10), updates on ESD,
                                                   ML-optimized integration grids
   S Lehtola, MJT Oliveira, MAL Marques          : LibXC Library
   Liviu Ungur et al                             : ANISO software


 Your calculation uses the libint2 library for the computation of 2-el integrals
 For citations please refer to: http://libint.valeyev.net

 Your ORCA version has been built with support for libXC version: 5.1.0
 For citations please refer to: https://tddft.org/programs/libxc/

 This ORCA versions uses:
   CBLAS   interface :  Fast vector & matrix operations
   LAPACKE interface :  Fast linear algebra routines
   SCALAPACK package :  Parallel linear algebra routines
   Shared memory     :  Shared parallel matrices
   BLAS/LAPACK       :  OpenBLAS 0.3.15  USE64BITINT DYNAMIC_ARCH NO_AFFINITY SkylakeX SINGLE_THREADED
        Core in use  :  SkylakeX
   Copyright (c) 2011-2014, The OpenBLAS Project


================================================================================

----- Orbital basis set information -----
Your calculation utilizes the basis: def2-SVP
   F. Weigend and R. Ahlrichs, Phys. Chem. Chem. Phys. 7, 3297 (2005).

================================================================================
                                        WARNINGS
                       Please study these warnings very carefully!
================================================================================


WARNING: Geometry Optimization
  ===> : Switching off AutoStart
         For restart on a previous wavefunction, please use MOREAD

INFO   : the flag for use of the SHARK integral package has been found!

================================================================================
                                       INPUT FILE
================================================================================
NAME = bBiCyDNH2_opt_orca.inp
|  1> ! Opt
|  2> %output 
|  3> xyzfile=True 
|  4> end 
|  5> %scf 
|  6> maxiter 250 
|  7> end
|  8> %output
|  9> Print[P_Hirshfeld] = 1
| 10> end
| 11> % maxcore
| 12> 4000
| 13> %pal nprocs 96
| 14> end
| 15> *xyz 1 1
| 16> H   -31.66267239 -29.39390954 -13.70040160
| 17> C   -21.74935609 -27.11830429 -9.73431512 
| 18> C   -21.94393547 -28.07953152 -8.54769320 
| 19> C   -23.42077741 -28.46637319 -8.50446998 
| 20> C   -24.28700007 -27.20037406 -8.41603065 
| 21> C   -23.91094725 -26.18907571 -9.51525433 
| 22> C   -24.59693357 -24.83318201 -9.31921791 
| 23> O   -21.12400941 -29.20368720 -8.73907762 
| 24> O   -23.63384331 -29.31720413 -7.40950801 
| 25> O   -25.61790357 -27.63964509 -8.61291280 
| 26> O   -22.50695869 -25.95735692 -9.55233411 
| 27> O   -25.18045464 -24.43054900 -10.54247211
| 28> H   -20.70387886 -26.78787037 -9.78056143 
| 29> H   -21.67393707 -27.55948920 -7.61755741 
| 30> H   -23.67314362 -28.97848665 -9.44604302 
| 31> H   -24.16153067 -26.74599837 -7.42459873 
| 32> H   -24.23708718 -26.60529530 -10.47826378
| 33> H   -25.36994302 -24.91405775 -8.54488920 
| 34> H   -23.83315878 -24.11821130 -8.99290501 
| 35> H   -21.41288695 -29.87158397 -8.10139492 
| 36> H   -24.58798394 -29.47860419 -7.32070413 
| 37> H   -25.50527523 -23.52946413 -10.43881761
| 38> C   -21.03848260 -28.68067875 -14.75790394
| 39> C   -20.33570831 -29.50121000 -13.66505773
| 40> C   -21.10846903 -29.35160266 -12.35497386
| 41> C   -21.22943890 -27.86407679 -11.99428215
| 42> C   -21.78665140 -27.06405850 -13.18734371
| 43> C   -21.67484317 -25.56037245 -12.94043158
| 44> O   -20.25521563 -30.84980232 -14.04719344
| 45> O   -22.12659577 -27.79025811 -10.90331480
| 46> O   -21.08036446 -27.33593871 -14.38974444
| 47> O   -22.39410151 -24.87837647 -13.94424631
| 48> H   -20.44610720 -28.70812082 -15.68011293
| 49> H   -19.32537038 -29.08608906 -13.52846266
| 50> H   -20.23876912 -27.48120669 -11.71567232
| 51> H   -22.84406155 -27.33765634 -13.30744242
| 52> H   -22.08614221 -25.33096155 -11.94902935
| 53> H   -20.61357577 -25.28950909 -12.97287567
| 54> H   -20.02529840 -31.34766009 -13.24943411
| 55> H   -22.14498655 -23.94878718 -13.92461697
| 56> C   -24.30224184 -30.93289327 -18.23006733
| 57> C   -22.79901324 -31.22578311 -18.11241200
| 58> C   -22.30144894 -30.92290354 -16.69515463
| 59> C   -22.68195344 -29.47353394 -16.32494926
| 60> C   -24.20751154 -29.31294228 -16.46852821
| 61> C   -24.62758254 -27.85685716 -16.24689031
| 62> O   -22.60102014 -32.58131477 -18.42180365
| 63> O   -20.91985539 -31.14724134 -16.71412776
| 64> O   -22.33836917 -29.18504688 -14.98385539
| 65> O   -24.62470417 -29.64345313 -17.79068900
| 66> H   -24.59770966 -30.95179295 -19.28302505
| 67> H   -22.25025741 -30.58291956 -18.81640277
| 68> H   -22.80008278 -31.59958566 -15.98493296
| 69> H   -22.17462392 -28.78141551 -17.01118041
| 70> H   -24.68335736 -29.97946839 -15.73722522
| 71> H   -21.66999891 -32.77303740 -18.23817993
| 72> H   -20.57992632 -31.13250810 -15.80172714
| 73> C   -28.08456180 -34.41808791 -17.69769781
| 74> C   -26.74856024 -35.13244966 -17.45241496
| 75> C   -25.68351903 -34.07247913 -17.14358041
| 76> C   -25.67622401 -32.92735086 -18.16847895
| 77> C   -27.08817149 -32.48048455 -18.58635897
| 78> C   -27.14485854 -31.60902144 -19.85963186
| 79> O   -26.91747228 -36.01437753 -16.37741821
| 80> O   -24.42936068 -34.70145253 -17.09049804
| 81> O   -25.02983065 -31.86427116 -17.47588595
| 82> O   -27.97138096 -33.57188190 -18.80988441
| 83> O   -27.28160013 -30.24363714 -19.56146631
| 84> H   -28.86863142 -35.14317266 -17.95206853
| 85> H   -26.46677758 -35.67176267 -18.36842874
| 86> H   -25.92772600 -33.63088284 -16.16381992
| 87> H   -25.09060259 -33.23822590 -19.04178380
| 88> H   -27.46536354 -31.88568380 -17.74081440
| 89> H   -26.23376657 -31.71912577 -20.45042274
| 90> H   -27.97948301 -31.97260976 -20.46892620
| 91> H   -26.04225207 -36.35330277 -16.14694563
| 92> H   -23.74892141 -34.05435536 -17.33046810
| 93> H   -28.20032155 -30.08059761 -19.30340471
| 94> C   -31.29801586 -31.73170210 -14.44358220
| 95> C   -31.08850130 -33.20530408 -14.06050884
| 96> C   -29.76908279 -33.69159858 -14.65811868
| 97> C   -29.73166182 -33.44687148 -16.17820808
| 98> C   -30.08990622 -31.97420927 -16.45534341
| 99> C   -30.24493982 -31.60150231 -17.93271273
|100> O   -31.09072513 -33.32079267 -12.66321007
|101> O   -29.62000518 -35.05051479 -14.35371746
|102> O   -28.38613290 -33.71750421 -16.52960525
|103> O   -31.31244022 -31.59603804 -15.83692342
|104> O   -29.87134432 -30.24451599 -18.13774814
|105> H   -32.28867065 -31.40501799 -14.10761637
|106> H   -31.91358131 -33.78923956 -14.49621672
|107> H   -28.95027814 -33.10404326 -14.21217234
|108> H   -30.42437226 -34.12509185 -16.69129131
|109> H   -29.26788568 -31.38561154 -16.01744811
|110> H   -29.60066679 -32.21696064 -18.55761525
|111> H   -31.28360824 -31.76845507 -18.22597602
|112> H   -30.75979177 -34.20451024 -12.45053478
|113> H   -28.84133904 -35.38583182 -14.82230443
|114> H   -30.62725156 -29.69081381 -17.91302571
|115> C   -30.27846420 -27.56840552 -11.39888754
|116> C   -31.31651747 -28.66383782 -11.08072043
|117> C   -30.91388846 -29.98068418 -11.75395368
|118> C   -30.71368185 -29.73454605 -13.26312291
|119> C   -29.66527230 -28.61788000 -13.43796882
|120> O   -31.45840022 -28.85096536 -9.69410327 
|121> O   -31.94558993 -30.89393551 -11.48650650
|122> O   -30.28339023 -30.92640638 -13.89641149
|123> O   -30.14738667 -27.45098517 -12.78774301
|124> H   -30.64557068 -26.59147391 -11.05742950
|125> H   -32.27441032 -28.33535820 -11.51252514
|126> H   -29.96232154 -30.33203947 -11.32964824
|127> H   -32.07461972 -29.59128664 -9.58739580 
|128> H   -31.66971911 -31.78338411 -11.76569684
|129> C   -26.59120572 -27.36080341 -7.65571742 
|130> C   -27.48857707 -28.60163583 -7.56502895 
|131> C   -28.07549073 -28.84592859 -8.96273065 
|132> C   -28.78735711 -27.59228537 -9.49011425 
|133> C   -27.93495611 -26.31779665 -9.29388235 
|134> C   -28.74705037 -25.02347344 -9.43566341 
|135> O   -26.69995965 -29.68839654 -7.15429510 
|136> O   -28.91509071 -29.97283727 -8.95546816 
|137> O   -29.00160026 -27.83011708 -10.87855990
|138> O   -27.35730825 -26.23993286 -7.99858262 
|139> O   -29.24856370 -24.81762430 -10.72547397
|140> H   -26.15132749 -27.13092787 -6.67640499 
|141> H   -28.29686085 -28.41087205 -6.84295294 
|142> H   -27.23805379 -29.07291926 -9.63511648 
|143> H   -29.74279587 -27.47170841 -8.96764305 
|144> H   -27.13670598 -26.33747922 -10.05326296
|145> H   -29.60634114 -25.04922142 -8.76191523 
|146> H   -28.09684997 -24.19332978 -9.12736670 
|147> H   -27.18419613 -30.49318708 -7.38732483 
|148> H   -29.84004398 -29.67582043 -8.94118644 
|149> H   -28.52783572 -24.94050707 -11.35598415
|150> C   -27.58044092 -26.59101670 -14.54965872
|151> C   -26.21294097 -26.55155016 -14.85088084
|152> N   -28.09631509 -27.73448925 -15.16011767
|153> N   -25.93906114 -27.65155355 -15.66253301
|154> C   -27.09784266 -28.31026262 -15.87534837
|155> H   -24.57622298 -27.35252596 -17.21869378
|156> H   -23.90958672 -27.39271164 -15.56838687
|157> C   -28.19203744 -25.56276962 -13.85392330
|158> C   -25.40385350 -25.51960047 -14.40825138
|159> C   -29.42685409 -28.25266376 -14.91858146
|160> H   -28.72429249 -28.94274490 -12.97662801
|161> H   -30.16233177 -27.49131102 -15.19329262
|162> H   -29.57796417 -29.14777860 -15.52012635
|163> O   -20.42413579 -30.08598555 -11.37766070
|164> H   -22.12660428 -29.74918652 -12.49694532
|165> H   -20.71860663 -29.80336058 -10.49197159
|166> N   -27.23561824 -29.36029074 -16.68261401
|167> H   -28.15857143 -29.63578484 -16.99638528
|168> C   -26.01557966 -24.50699677 -13.69112964
|169> C   -27.38326421 -24.51686712 -13.43975241
|170> H   -25.41481082 -23.68695845 -13.33591097
|171> H   -24.34624506 -25.47580643 -14.60748246
|172> H   -27.83127187 -23.67659006 -12.93218892
|173> H   -29.24716312 -25.57514402 -13.64379770
|174> H   -26.47490919 -29.57498973 -17.33029084
|175> *
|176> 
|177>                          ****END OF INPUT****
================================================================================

                       *****************************
                       * Geometry Optimization Run *
                       *****************************

Geometry optimization settings:
Update method            Update   .... BFGS
Choice of coordinates    CoordSys .... Z-matrix Internals
Initial Hessian          InHess   .... Almoef's Model

Convergence Tolerances:
Energy Change            TolE     ....  5.0000e-06 Eh
Max. Gradient            TolMAXG  ....  3.0000e-04 Eh/bohr
RMS Gradient             TolRMSG  ....  1.0000e-04 Eh/bohr
Max. Displacement        TolMAXD  ....  4.0000e-03 bohr
RMS Displacement         TolRMSD  ....  2.0000e-03 bohr
Strict Convergence                ....  False
------------------------------------------------------------------------------
                        ORCA OPTIMIZATION COORDINATE SETUP
------------------------------------------------------------------------------

The optimization will be done in new redundant internal coordinates
Making redundant internal coordinates   ...  (new redundants) done
Evaluating the initial hessian          ...  (Almloef) done
Evaluating the coordinates              ...  done
Calculating the B-matrix                .... done
Calculating the G-matrix                .... done
Diagonalizing the G-matrix              .... done
Small eigenvalue found = 9.651e-04
Small eigenvalue found = 1.474e-03
Small eigenvalue found = 3.409e-03
Small eigenvalue found = 3.606e-03
Small eigenvalue found = 4.413e-03
Small eigenvalue found = 4.943e-03
Small eigenvalue found = 5.595e-03
Small eigenvalue found = 6.242e-03
Small eigenvalue found = 6.371e-03
Small eigenvalue found = 7.207e-03
Small eigenvalue found = 7.628e-03
Small eigenvalue found = 1.044e-02
Small eigenvalue found = 1.126e-02
Small eigenvalue found = 1.185e-02
Small eigenvalue found = 1.406e-02
Small eigenvalue found = 1.447e-02
Small eigenvalue found = 1.608e-02
Small eigenvalue found = 1.633e-02
Small eigenvalue found = 1.757e-02
Small eigenvalue found = 1.851e-02
Small eigenvalue found = 1.957e-02
Small eigenvalue found = 2.071e-02
Small eigenvalue found = 2.199e-02
Small eigenvalue found = 2.406e-02
Small eigenvalue found = 2.520e-02
Small eigenvalue found = 2.664e-02
Small eigenvalue found = 2.908e-02
The first mode is                       ....  256
The number of degrees of freedom        ....  471

    -----------------------------------------------------------------
                    Redundant Internal Coordinates


    -----------------------------------------------------------------
         Definition                    Initial Value    Approx d2E/dq
    -----------------------------------------------------------------
      1. B(C   2,C   1)                  1.5394         0.360835   
      2. B(C   3,C   2)                  1.5273         0.377330   
      3. B(C   4,C   3)                  1.5365         0.364723   
      4. B(C   5,C   4)                  1.5403         0.359743   
      5. B(C   6,C   5)                  1.5321         0.370648   
      6. B(O   7,C   2)                  1.4045         0.530560   
      7. B(O   8,C   3)                  1.4029         0.533610   
      8. B(O   9,C   4)                  1.4153         0.509962   
      9. B(O  10,C   5)                  1.4235         0.494862   
     10. B(O  10,C   1)                  1.3982         0.543052   
     11. B(O  11,C   6)                  1.4138         0.512661   
     12. B(H  12,C   1)                  1.0974         0.350407   
     13. B(H  13,C   2)                  1.0993         0.347985   
     14. B(H  14,C   3)                  1.1011         0.345661   
     15. B(H  15,C   4)                  1.0978         0.349944   
     16. B(H  16,C   5)                  1.0986         0.348860   
     17. B(H  17,C   6)                  1.0971         0.350805   
     18. B(H  18,C   6)                  1.0959         0.352368   
     19. B(H  19,O   7)                  0.9676         0.505711   
     20. B(H  20,O   8)                  0.9718         0.497969   
     21. B(H  21,O  11)                  0.9634         0.513436   
     22. B(C  23,C  22)                  1.5367         0.364479   
     23. B(C  24,C  23)                  1.5284         0.375843   
     24. B(C  25,C  24)                  1.5354         0.366232   
     25. B(C  26,C  25)                  1.5408         0.359109   
     26. B(C  27,C  26)                  1.5279         0.376441   
     27. B(O  28,C  23)                  1.4040         0.531550   
     28. B(O  29,C  25)                  1.4144         0.511605   
     29. B(O  29,C   1)                  1.4001         0.539135   
     30. B(O  30,C  26)                  1.4207         0.499824   
     31. B(O  30,C  22)                  1.3949         0.549704   
     32. B(O  31,C  27)                  1.4107         0.518607   
     33. B(H  32,C  22)                  1.0964         0.351710   
     34. B(H  33,C  23)                  1.1008         0.346089   
     35. B(H  34,C  25)                  1.0980         0.349650   
     36. B(H  35,C  26)                  1.0988         0.348625   
     37. B(H  36,C  27)                  1.0976         0.350215   
     38. B(H  37,C  27)                  1.0958         0.352550   
     39. B(H  38,O  28)                  0.9681         0.504782   
     40. B(H  39,O  31)                  0.9626         0.515032   
     41. B(C  41,C  40)                  1.5360         0.365419   
     42. B(C  42,C  41)                  1.5323         0.370440   
     43. B(C  43,C  42)                  1.5435         0.355451   
     44. B(C  44,C  43)                  1.5407         0.359186   
     45. B(C  45,C  44)                  1.5316         0.371399   
     46. B(O  46,C  41)                  1.4044         0.530728   
     47. B(O  47,C  42)                  1.3998         0.539775   
     48. B(O  48,C  43)                  1.4141         0.512098   
     49. B(O  48,C  22)                  1.4125         0.515209   
     50. B(O  49,C  44)                  1.4253         0.491591   
     51. B(O  49,C  40)                  1.3999         0.539631   
     52. B(H  50,C  40)                  1.0938         0.355120   
     53. B(H  51,C  41)                  1.1000         0.347106   
     54. B(H  52,C  42)                  1.1004         0.346562   
     55. B(H  53,C  43)                  1.0988         0.348666   
     56. B(H  54,C  44)                  1.0979         0.349737   
     57. B(H  55,O  46)                  0.9681         0.504656   
     58. B(H  56,O  47)                  0.9738         0.494293   
     59. B(C  58,C  57)                  1.5347         0.367148   
     60. B(C  59,C  58)                  1.5340         0.368093   
     61. B(C  60,C  59)                  1.5368         0.364343   
     62. B(C  61,C  60)                  1.5388         0.361689   
     63. B(C  62,C  61)                  1.5440         0.354869   
     64. B(O  63,C  58)                  1.4007         0.538037   
     65. B(O  64,C  59)                  1.4040         0.531459   
     66. B(O  65,C  60)                  1.4240         0.493972   
     67. B(O  65,C  40)                  1.4020         0.535439   
     68. B(O  66,C  61)                  1.4217         0.498120   
     69. B(O  66,C  57)                  1.4021         0.535303   
     70. B(O  67,C  62)                  1.4042         0.531086   
     71. B(H  68,C  57)                  1.0978         0.349897   
     72. B(H  69,C  58)                  1.0997         0.347493   
     73. B(H  70,C  59)                  1.1021         0.344472   
     74. B(H  71,C  60)                  1.0965         0.351636   
     75. B(H  72,C  61)                  1.1005         0.346528   
     76. B(H  73,C  62)                  1.0914         0.358198   
     77. B(H  74,C  62)                  1.0955         0.352948   
     78. B(H  75,O  63)                  0.9664         0.507807   
     79. B(H  76,O  64)                  0.9692         0.502706   
     80. B(H  77,O  67)                  0.9681         0.504703   
     81. B(C  79,C  78)                  1.5369         0.364188   
     82. B(C  80,C  79)                  1.5279         0.376465   
     83. B(C  81,C  80)                  1.5401         0.359944   
     84. B(C  82,C  81)                  1.5407         0.359124   
     85. B(C  83,C  82)                  1.5315         0.371489   
     86. B(O  84,C  79)                  1.4021         0.535336   
     87. B(O  85,C  80)                  1.4005         0.538326   
     88. B(O  86,C  81)                  1.4167         0.507228   
     89. B(O  86,C  57)                  1.3951         0.549284   
     90. B(O  87,C  82)                  1.4213         0.498844   
     91. B(O  87,C  78)                  1.4000         0.539404   
     92. B(O  88,C  83)                  1.4223         0.496928   
     93. B(H  89,C  78)                  1.0959         0.352382   
     94. B(H  90,C  79)                  1.1007         0.346198   
     95. B(H  91,C  80)                  1.1021         0.344498   
     96. B(H  92,C  81)                  1.0969         0.351148   
     97. B(H  93,C  82)                  1.1018         0.344850   
     98. B(H  94,C  83)                  1.0883         0.362366   
     99. B(H  95,C  83)                  1.0921         0.357317   
    100. B(H  96,O  84)                  0.9673         0.506164   
    101. B(H  97,O  85)                  0.9687         0.503646   
    102. B(H  98,O  88)                  0.9636         0.513167   
    103. B(C 100,C  99)                  1.5423         0.357041   
    104. B(C 101,C 100)                  1.5328         0.369769   
    105. B(C 102,C 101)                  1.5422         0.357253   
    106. B(C 102,H   0)                  1.0990         0.348373   
    107. B(C 103,C 102)                  1.5416         0.357927   
    108. B(O 104,C 100)                  1.4064         0.526952   
    109. B(O 105,C 101)                  1.4036         0.532416   
    110. B(O 106,C 102)                  1.4166         0.507514   
    111. B(O 106,C  78)                  1.4062         0.527291   
    112. B(O 107,C 103)                  1.4202         0.500896   
    113. B(O 107,C  99)                  1.4000         0.539492   
    114. B(H 108,C  99)                  1.0981         0.349582   
    115. B(H 109,C 100)                  1.1009         0.346005   
    116. B(H 110,C 101)                  1.0995         0.347712   
    117. B(H 111,O 104)                  0.9691         0.502829   
    118. B(H 112,O 105)                  0.9722         0.497169   
    119. B(C 113,O   9)                  1.3933         0.552848   
    120. B(C 114,C 113)                  1.5340         0.368121   
    121. B(C 115,C 114)                  1.5355         0.366122   
    122. B(C 116,C 115)                  1.5351         0.366651   
    123. B(C 117,C 116)                  1.5458         0.352543   
    124. B(C 118,C 117)                  1.5346         0.367370   
    125. B(O 119,C 114)                  1.4042         0.531230   
    126. B(O 120,C 115)                  1.4053         0.528987   
    127. B(O 121,C  99)                  1.4034         0.532659   
    128. B(O 121,C 116)                  1.4249         0.492320   
    129. B(O 122,C 117)                  1.4204         0.500462   
    130. B(O 122,C 113)                  1.4003         0.538832   
    131. B(O 123,C 118)                  1.3991         0.541185   
    132. B(H 124,C 113)                  1.0979         0.349797   
    133. B(H 125,C 114)                  1.1005         0.346470   
    134. B(H 126,C 115)                  1.0977         0.350067   
    135. B(H 127,C 116)                  1.0956         0.352745   
    136. B(H 128,C 117)                  1.1019         0.344659   
    137. B(H 129,C 118)                  1.0922         0.357154   
    138. B(H 130,C 118)                  1.0986         0.348887   
    139. B(H 131,O 119)                  0.9677         0.505423   
    140. B(H 132,O 120)                  0.9716         0.498307   
    141. B(H 133,O 123)                  0.9654         0.509651   
    142. B(C 135,C 134)                  1.4008         0.600408   
    143. B(N 136,C 134)                  1.3951         0.549202   
    144. B(N 137,C 135)                  1.3942         0.551027   
    145. B(N 137,C  45)                  1.4504         0.448275   
    146. B(C 138,N 137)                  1.3498         0.648650   
    147. B(C 138,N 136)                  1.3565         0.632946   
    148. B(H 139,C  45)                  1.0961         0.352147   
    149. B(H 140,C  45)                  1.0915         0.358155   
    150. B(C 141,C 134)                  1.3840         0.638777   
    151. B(C 142,C 135)                  1.3840         0.638715   
    152. B(C 143,N 136)                  1.4482         0.451938   
    153. B(C 143,C 103)                  1.5435         0.355479   
    154. B(H 144,C 103)                  1.0972         0.350719   
    155. B(H 145,C 143)                  1.0936         0.355315   
    156. B(H 146,C 143)                  1.0890         0.361425   
    157. B(O 147,C  24)                  1.4010         0.537456   
    158. B(H 148,C  24)                  1.1022         0.344327   
    159. B(H 149,O 147)                  0.9752         0.491699   
    160. B(N 150,C 138)                  1.3316         0.693446   
    161. B(H 151,H  77)                  2.3499         0.000674   
    162. B(H 151,O  88)                  2.1464         0.006656   
    163. B(H 151,N 150)                  1.0130         0.427948   
    164. B(C 152,C 142)                  1.3834         0.640094   
    165. B(C 153,C 152)                  1.3906         0.623354   
    166. B(C 153,C 141)                  1.3855         0.635250   
    167. B(H 154,O  11)                  2.9002         0.000417   
    168. B(H 154,C 152)                  1.0768         0.377948   
    169. B(H 155,O  31)                  2.1465         0.006651   
    170. B(H 155,C 142)                  1.0771         0.377575   
    171. B(H 156,H 133)                  2.1371         0.001472   
    172. B(H 156,C 153)                  1.0791         0.374850   
    173. B(H 157,C 141)                  1.0759         0.379221   
    174. B(H 158,N 150)                  1.0219         0.414214   
    175. A(C   2,C   1,O  29)          108.0500         0.382338   
    176. A(H  12,C   1,O  29)          111.4688         0.341026   
    177. A(C   2,C   1,H  12)          109.9317         0.321040   
    178. A(C   2,C   1,O  10)          110.4656         0.382819   
    179. A(O  10,C   1,H  12)          105.7640         0.341440   
    180. A(O  10,C   1,O  29)          111.1722         0.408126   
    181. A(C   1,C   2,H  13)          109.0119         0.320676   
    182. A(C   3,C   2,O   7)          111.4464         0.384247   
    183. A(O   7,C   2,H  13)          110.5208         0.339720   
    184. A(C   1,C   2,O   7)          108.7199         0.381275   
    185. A(C   1,C   2,C   3)          107.5891         0.361822   
    186. A(C   3,C   2,H  13)          109.4735         0.323032   
    187. A(C   2,C   3,H  14)          108.3739         0.322678   
    188. A(C   4,C   3,H  14)          107.6502         0.320887   
    189. A(C   2,C   3,O   8)          108.8174         0.384631   
    190. A(C   2,C   3,C   4)          109.7595         0.362485   
    191. A(O   8,C   3,H  14)          110.5190         0.339665   
    192. A(C   4,C   3,O   8)          111.6629         0.382366   
    193. A(O   9,C   4,H  15)          111.1972         0.337799   
    194. A(C   3,C   4,C   5)          111.2389         0.359546   
    195. A(C   5,C   4,O   9)          109.5177         0.378469   
    196. A(C   5,C   4,H  15)          110.1730         0.320812   
    197. A(C   3,C   4,H  15)          109.1824         0.321535   
    198. A(C   3,C   4,O   9)          105.4505         0.379371   
    199. A(C   4,C   5,H  16)          107.7182         0.320649   
    200. A(C   6,C   5,O  10)          107.5104         0.378456   
    201. A(C   4,C   5,O  10)          111.4862         0.376506   
    202. A(O  10,C   5,H  16)          109.3681         0.335938   
    203. A(C   4,C   5,C   6)          112.3597         0.360535   
    204. A(C   6,C   5,H  16)          108.3314         0.322220   
    205. A(O  11,C   6,H  17)          109.9281         0.338235   
    206. A(C   5,C   6,H  17)          109.9092         0.322514   
    207. A(H  17,C   6,H  18)          109.2073         0.288665   
    208. A(C   5,C   6,O  11)          109.0325         0.380781   
    209. A(C   5,C   6,H  18)          107.6626         0.322749   
    210. A(O  11,C   6,H  18)          111.0673         0.338486   
    211. A(C   2,O   7,H  19)          106.7622         0.358676   
    212. A(C   3,O   8,H  20)          108.7335         0.358085   
    213. A(C   4,O   9,C 113)          119.9487         0.405411   
    214. A(C   1,O  10,C   5)          113.7448         0.401997   
    215. A(C   6,O  11,H  21)          108.2046         0.357509   
    216. A(C  23,C  22,H  32)          109.7378         0.321764   
    217. A(H  32,C  22,O  48)          110.7152         0.338660   
    218. A(C  23,C  22,O  30)          109.9254         0.384301   
    219. A(O  30,C  22,H  32)          105.2099         0.342349   
    220. A(O  30,C  22,O  48)          111.0287         0.405736   
    221. A(C  23,C  22,O  48)          110.1186         0.380001   
    222. A(O  28,C  23,H  33)          110.0829         0.339516   
    223. A(C  22,C  23,C  24)          109.0322         0.362199   
    224. A(C  22,C  23,H  33)          107.8562         0.320917   
    225. A(C  22,C  23,O  28)          110.2148         0.382065   
    226. A(C  24,C  23,H  33)          108.7104         0.322534   
    227. A(C  24,C  23,O  28)          110.8743         0.384108   
    228. A(C  23,C  24,C  25)          109.6357         0.362496   
    229. A(C  25,C  24,H 148)          107.8757         0.320901   
    230. A(O 147,C  24,H 148)          110.6086         0.339853   
    231. A(C  25,C  24,O 147)          112.4857         0.383118   
    232. A(C  23,C  24,O 147)          107.4381         0.384847   
    233. A(C  23,C  24,H 148)          108.7436         0.322265   
    234. A(C  24,C  25,H  34)          109.0469         0.321708   
    235. A(C  26,C  25,H  34)          109.9816         0.320675   
    236. A(O  29,C  25,H  34)          111.0003         0.337932   
    237. A(C  26,C  25,O  29)          109.9239         0.378564   
    238. A(C  24,C  25,O  29)          106.3637         0.379854   
    239. A(C  24,C  25,C  26)          110.4651         0.359691   
    240. A(C  25,C  26,H  35)          107.6601         0.320521   
    241. A(C  25,C  26,O  30)          112.0976         0.377041   
    242. A(C  27,C  26,O  30)          106.7811         0.380131   
    243. A(C  25,C  26,C  27)          111.0638         0.361381   
    244. A(O  30,C  26,H  35)          109.7698         0.336459   
    245. A(C  27,C  26,H  35)          109.4586         0.323005   
    246. A(C  26,C  27,H  36)          108.9199         0.323246   
    247. A(H  36,C  27,H  37)          109.7558         0.288612   
    248. A(C  26,C  27,O  31)          108.8732         0.382572   
    249. A(C  26,C  27,H  37)          108.0205         0.323598   
    250. A(O  31,C  27,H  36)          110.5257         0.338791   
    251. A(O  31,C  27,H  37)          110.6852         0.339167   
    252. A(C  23,O  28,H  38)          106.4578         0.358677   
    253. A(C   1,O  29,C  25)          119.8770         0.403846   
    254. A(C  22,O  30,C  26)          115.0110         0.403570   
    255. A(C  27,O  31,H  39)          108.6877         0.358400   
    256. A(H  50,C  40,O  65)          111.4802         0.341396   
    257. A(O  49,C  40,O  65)          108.8761         0.407174   
    258. A(C  41,C  40,O  65)          109.8773         0.382720   
    259. A(O  49,C  40,H  50)          104.8234         0.341842   
    260. A(C  41,C  40,H  50)          109.5610         0.322409   
    261. A(C  41,C  40,O  49)          112.1498         0.383239   
    262. A(O  46,C  41,H  51)          110.6561         0.339594   
    263. A(C  42,C  41,H  51)          108.3265         0.321925   
    264. A(C  40,C  41,H  51)          109.1329         0.321206   
    265. A(C  40,C  41,O  46)          107.7666         0.382133   
    266. A(C  40,C  41,C  42)          110.5451         0.361464   
    267. A(C  42,C  41,O  46)          110.4118         0.383040   
    268. A(O  47,C  42,H  52)          110.9422         0.340465   
    269. A(C  43,C  42,H  52)          108.1142         0.319675   
    270. A(C  41,C  42,H  52)          109.1634         0.321842   
    271. A(C  43,C  42,O  47)          113.3933         0.381420   
    272. A(C  41,C  42,C  43)          109.1106         0.359764   
    273. A(C  41,C  42,O  47)          106.0381         0.384167   
    274. A(O  48,C  43,H  53)          110.5849         0.337828   
    275. A(C  44,C  43,H  53)          109.4708         0.320539   
    276. A(C  42,C  43,H  53)          109.1387         0.319992   
    277. A(C  44,C  43,O  48)          107.9200         0.378641   
    278. A(C  42,C  43,O  48)          111.0458         0.377957   
    279. A(C  42,C  43,C  44)          108.6397         0.357880   
    280. A(O  49,C  44,H  54)          110.5022         0.335708   
    281. A(C  45,C  44,H  54)          111.2159         0.322460   
    282. A(C  43,C  44,H  54)          107.6854         0.320700   
    283. A(C  45,C  44,O  49)          105.9275         0.378155   
    284. A(C  43,C  44,O  49)          110.6167         0.375974   
    285. A(C  43,C  44,C  45)          110.9275         0.360564   
    286. A(N 137,C  45,H 139)          109.5395         0.330987   
    287. A(C  44,C  45,H 140)          108.2895         0.323720   
    288. A(N 137,C  45,H 140)          106.5093         0.331915   
    289. A(C  44,C  45,H 139)          107.2346         0.322823   
    290. A(C  44,C  45,N 137)          116.1602         0.372181   
    291. A(H 139,C  45,H 140)          108.9454         0.289576   
    292. A(C  41,O  46,H  55)          106.5548         0.358568   
    293. A(C  42,O  47,H  56)          109.2332         0.358333   
    294. A(C  22,O  48,C  43)          116.6243         0.400696   
    295. A(C  40,O  49,C  44)          115.9338         0.401080   
    296. A(O  66,C  57,H  68)          105.8116         0.340537   
    297. A(C  58,C  57,H  68)          110.5686         0.321876   
    298. A(C  58,C  57,O  66)          109.7205         0.383017   
    299. A(H  68,C  57,O  86)          111.7958         0.342009   
    300. A(O  66,C  57,O  86)          112.2436         0.408435   
    301. A(C  58,C  57,O  86)          106.7449         0.384737   
    302. A(C  59,C  58,O  63)          111.3630         0.383527   
    303. A(C  57,C  58,O  63)          108.1048         0.383356   
    304. A(C  57,C  58,C  59)          108.3567         0.361363   
    305. A(O  63,C  58,H  69)          111.1859         0.340435   
    306. A(C  59,C  58,H  69)          109.1876         0.321649   
    307. A(C  57,C  58,H  69)          108.5543         0.321513   
    308. A(C  60,C  59,O  64)          110.7795         0.382028   
    309. A(C  58,C  59,O  64)          108.5563         0.382708   
    310. A(C  58,C  59,C  60)          112.5755         0.360891   
    311. A(O  64,C  59,H  70)          110.1099         0.339240   
    312. A(C  60,C  59,H  70)          107.1793         0.320652   
    313. A(C  58,C  59,H  70)          107.5780         0.321189   
    314. A(C  61,C  60,O  65)          109.3782         0.376741   
    315. A(C  59,C  60,O  65)          103.5372         0.377217   
    316. A(C  59,C  60,C  61)          113.1497         0.359813   
    317. A(O  65,C  60,H  71)          110.8922         0.336281   
    318. A(C  61,C  60,H  71)          110.8615         0.321349   
    319. A(C  59,C  60,H  71)          108.8103         0.321734   
    320. A(C  62,C  61,O  66)          106.3098         0.376046   
    321. A(C  60,C  61,O  66)          112.9416         0.377286   
    322. A(C  60,C  61,C  62)          114.9322         0.358203   
    323. A(O  66,C  61,H  72)          108.8325         0.335930   
    324. A(C  62,C  61,H  72)          108.4201         0.319585   
    325. A(C  60,C  61,H  72)          105.2368         0.320581   
    326. A(C  61,C  62,O  67)          112.1653         0.380240   
    327. A(H  73,C  62,H  74)          107.5446         0.289684   
    328. A(C  61,C  62,H  74)          107.4166         0.320545   
    329. A(O  67,C  62,H  73)          107.1162         0.341423   
    330. A(C  61,C  62,H  73)          111.0265         0.321320   
    331. A(O  67,C  62,H  74)          111.5079         0.340581   
    332. A(C  58,O  63,H  75)          107.1351         0.359785   
    333. A(C  59,O  64,H  76)          108.5823         0.358415   
    334. A(C  40,O  65,C  60)          118.0274         0.400871   
    335. A(C  57,O  66,C  61)          112.8770         0.401444   
    336. A(C  62,O  67,H  77)          108.2258         0.358614   
    337. A(H  89,C  78,O 106)          111.2382         0.340082   
    338. A(O  87,C  78,O 106)          109.8284         0.406041   
    339. A(C  79,C  78,O 106)          110.7161         0.381479   
    340. A(O  87,C  78,H  89)          105.4803         0.341376   
    341. A(C  79,C  78,H  89)          109.4287         0.321823   
    342. A(C  79,C  78,O  87)          110.0216         0.382986   
    343. A(O  84,C  79,H  90)          110.4633         0.339936   
    344. A(C  80,C  79,H  90)          108.8826         0.322638   
    345. A(C  78,C  79,H  90)          107.9268         0.320892   
    346. A(C  80,C  79,O  84)          111.4048         0.384693   
    347. A(C  78,C  79,O  84)          109.0964         0.382483   
    348. A(C  78,C  79,C  80)          108.9894         0.362252   
    349. A(O  85,C  80,H  91)          110.5034         0.339973   
    350. A(C  81,C  80,H  91)          107.2545         0.320020   
    351. A(C  79,C  80,H  91)          108.2788         0.322378   
    352. A(C  81,C  80,O  85)          111.4759         0.382074   
    353. A(C  79,C  80,O  85)          108.4045         0.385066   
    354. A(C  79,C  80,C  81)          110.8825         0.361528   
    355. A(O  86,C  81,H  92)          111.4480         0.337689   
    356. A(C  82,C  81,H  92)          111.1020         0.320902   
    357. A(C  80,C  81,H  92)          110.3709         0.321022   
    358. A(C  82,C  81,O  86)          111.0263         0.378004   
    359. A(C  80,C  81,O  86)          103.7407         0.378154   
    360. A(C  80,C  81,C  82)          108.8907         0.358635   
    361. A(O  87,C  82,H  93)          109.0671         0.335740   
    362. A(C  83,C  82,H  93)          109.2025         0.321730   
    363. A(C  81,C  82,H  93)          105.4059         0.319954   
    364. A(C  83,C  82,O  87)          105.5396         0.379131   
    365. A(C  81,C  82,O  87)          112.0896         0.376916   
    366. A(C  81,C  82,C  83)          115.4455         0.360568   
    367. A(H  94,C  83,H  95)          108.8075         0.290772   
    368. A(O  88,C  83,H  95)          110.9130         0.337515   
    369. A(C  82,C  83,H  95)          108.5484         0.323608   
    370. A(O  88,C  83,H  94)          107.5341         0.338305   
    371. A(C  82,C  83,H  94)          110.8761         0.324355   
    372. A(C  82,C  83,O  88)          110.1601         0.378878   
    373. A(C  79,O  84,H  96)          107.0869         0.359278   
    374. A(C  80,O  85,H  97)          108.4390         0.359314   
    375. A(C  57,O  86,C  81)          120.5913         0.404564   
    376. A(C  78,O  87,C  82)          113.4780         0.402087   
    377. A(C  83,O  88,H  98)          107.9723         0.355590   
    378. A(H 108,C  99,O 121)          110.7804         0.340204   
    379. A(O 107,C  99,O 121)          107.3536         0.406781   
    380. A(C 100,C  99,O 121)          113.7920         0.380838   
    381. A(O 107,C  99,H 108)          105.3774         0.340930   
    382. A(C 100,C  99,H 108)          110.0435         0.320363   
    383. A(C 100,C  99,O 107)          109.1015         0.381681   
    384. A(O 104,C 100,H 109)          109.7947         0.339010   
    385. A(C 101,C 100,H 109)          108.2177         0.321662   
    386. A(C  99,C 100,H 109)          107.0252         0.319825   
    387. A(C 101,C 100,O 104)          110.1966         0.382444   
    388. A(C  99,C 100,O 104)          111.4568         0.380127   
    389. A(C  99,C 100,C 101)          110.0467         0.359926   
    390. A(O 105,C 101,H 110)          110.7746         0.339873   
    391. A(C 102,C 101,H 110)          108.4388         0.320113   
    392. A(C 100,C 101,H 110)          109.4125         0.321921   
    393. A(C 102,C 101,O 105)          112.6904         0.380847   
    394. A(C 100,C 101,O 105)          106.3930         0.383130   
    395. A(C 100,C 101,C 102)          109.0750         0.359963   
    396. A(C 103,C 102,O 106)          110.6190         0.377823   
    397. A(C 101,C 102,O 106)          110.0375         0.377700   
    398. A(H   0,C 102,O 106)          110.1934         0.337275   
    399. A(C 101,C 102,C 103)          108.3538         0.357974   
    400. A(H   0,C 102,C 103)          108.5175         0.320311   
    401. A(H   0,C 102,C 101)          109.0710         0.320212   
    402. A(C 102,C 103,O 107)          108.2018         0.376966   
    403. A(O 107,C 103,H 144)          109.9936         0.336915   
    404. A(C 102,C 103,H 144)          108.7284         0.320663   
    405. A(O 107,C 103,C 143)          107.2904         0.376519   
    406. A(C 102,C 103,C 143)          112.6577         0.357671   
    407. A(C 143,C 103,H 144)          109.9333         0.320303   
    408. A(C 100,O 104,H 111)          105.9236         0.357911   
    409. A(C 101,O 105,H 112)          109.3893         0.357850   
    410. A(C  78,O 106,C 102)          115.8880         0.401698   
    411. A(C  99,O 107,C 103)          114.6510         0.402389   
    412. A(O 122,C 113,H 124)          105.6646         0.340895   
    413. A(C 114,C 113,H 124)          110.5489         0.322001   
    414. A(O   9,C 113,H 124)          112.0129         0.342363   
    415. A(C 114,C 113,O 122)          109.9929         0.383631   
    416. A(O   9,C 113,O 122)          111.9726         0.409379   
    417. A(O   9,C 113,C 114)          106.7011         0.385348   
    418. A(O 119,C 114,H 125)          110.7770         0.339544   
    419. A(C 115,C 114,H 125)          110.1266         0.321211   
    420. A(C 113,C 114,H 125)          109.1613         0.321498   
    421. A(C 115,C 114,O 119)          110.9653         0.382323   
    422. A(C 113,C 114,O 119)          108.3481         0.382685   
    423. A(C 113,C 114,C 115)          107.3663         0.361195   
    424. A(O 120,C 115,H 126)          107.0460         0.339890   
    425. A(C 116,C 115,H 126)          108.1929         0.321831   
    426. A(C 114,C 115,H 126)          107.3898         0.321754   
    427. A(C 116,C 115,O 120)          112.3084         0.382138   
    428. A(C 114,C 115,O 120)          110.5631         0.382042   
    429. A(C 114,C 115,C 116)          111.1031         0.360949   
    430. A(O 121,C 116,H 127)          110.6055         0.336270   
    431. A(C 117,C 116,H 127)          109.2450         0.320170   
    432. A(C 115,C 116,H 127)          109.2956         0.322233   
    433. A(C 117,C 116,O 121)          110.1353         0.374860   
    434. A(C 115,C 116,O 121)          105.5562         0.377411   
    435. A(C 115,C 116,C 117)          111.9626         0.358633   
    436. A(O 122,C 117,H 128)          109.5614         0.335890   
    437. A(C 118,C 117,H 128)          109.5577         0.321115   
    438. A(C 116,C 117,H 128)          107.2930         0.318960   
    439. A(C 118,C 117,O 122)          104.6690         0.378612   
    440. A(C 116,C 117,O 122)          112.6576         0.375924   
    441. A(C 116,C 117,C 118)          113.0709         0.358752   
    442. A(C 117,C 118,H 129)          109.8442         0.322993   
    443. A(C 117,C 118,O 123)          113.5135         0.383785   
    444. A(H 129,C 118,H 130)          108.0788         0.289027   
    445. A(O 123,C 118,H 130)          111.0801         0.340995   
    446. A(C 117,C 118,H 130)          107.3498         0.321756   
    447. A(O 123,C 118,H 129)          106.8657         0.342334   
    448. A(C 114,O 119,H 131)          106.9886         0.358718   
    449. A(C 115,O 120,H 132)          108.8874         0.357596   
    450. A(C  99,O 121,C 116)          117.8366         0.400268   
    451. A(C 113,O 122,C 117)          113.6972         0.402241   
    452. A(C 118,O 123,H 133)          108.4054         0.360365   
    453. A(N 136,C 134,C 141)          131.7224         0.424218   
    454. A(C 135,C 134,C 141)          121.2358         0.433888   
    455. A(C 135,C 134,N 136)          106.8565         0.419551   
    456. A(N 137,C 135,C 142)          131.2720         0.424463   
    457. A(C 134,C 135,C 142)          121.5285         0.433881   
    458. A(C 134,C 135,N 137)          107.1408         0.419799   
    459. A(C 138,N 136,C 143)          127.7601         0.406452   
    460. A(C 134,N 136,C 143)          124.0582         0.396417   
    461. A(C 134,N 136,C 138)          107.8448         0.420771   
    462. A(C 135,N 137,C 138)          107.9491         0.422867   
    463. A(C  45,N 137,C 138)          130.0658         0.407630   
    464. A(C  45,N 137,C 135)          121.5918         0.396082   
    465. A(N 137,C 138,N 150)          124.6952         0.440699   
    466. A(N 136,C 138,N 150)          125.3235         0.438753   
    467. A(N 136,C 138,N 137)          109.9768         0.433506   
    468. A(C 153,C 141,H 157)          121.5181         0.357490   
    469. A(C 134,C 141,H 157)          121.5341         0.357827   
    470. A(C 134,C 141,C 153)          116.9477         0.438320   
    471. A(C 152,C 142,H 155)          120.0202         0.357687   
    472. A(C 135,C 142,H 155)          123.0370         0.357556   
    473. A(C 135,C 142,C 152)          116.9396         0.438913   
    474. A(H 145,C 143,H 146)          109.8859         0.290397   
    475. A(N 136,C 143,H 146)          109.2365         0.332864   
    476. A(C 103,C 143,H 146)          108.2975         0.321883   
    477. A(N 136,C 143,H 145)          109.0800         0.331925   
    478. A(C 103,C 143,H 145)          107.5655         0.320986   
    479. A(C 103,C 143,N 136)          112.7414         0.369903   
    480. A(C  24,O 147,H 149)          109.5204         0.357750   
    481. A(H 151,N 150,H 158)          115.1368         0.300619   
    482. A(C 138,N 150,H 158)          118.2213         0.362868   
    483. A(C 138,N 150,H 151)          119.7678         0.364897   
    484. A(C 153,C 152,H 154)          119.6351         0.356140   
    485. A(C 142,C 152,H 154)          118.7970         0.357748   
    486. A(C 142,C 152,C 153)          121.5604         0.436991   
    487. A(C 152,C 153,H 156)          119.1979         0.355643   
    488. A(C 141,C 153,H 156)          119.0842         0.356787   
    489. A(C 141,C 153,C 152)          121.6977         0.436393   
    490. D(C   3,C   2,C   1,O  10)     61.7299         0.010442   
    491. D(O   7,C   2,C   1,O  10)   -177.4454         0.010442   
    492. D(C   3,C   2,C   1,H  12)    178.0756         0.010442   
    493. D(C   4,C   3,C   2,O   7)   -175.1459         0.011356   
    494. D(O   8,C   3,C   2,C   1)   -178.5169         0.011356   
    495. D(C   4,C   3,C   2,C   1)    -56.0508         0.011356   
    496. D(C   5,C   4,C   3,C   2)     51.5847         0.010653   
    497. D(O   9,C   4,C   3,C   2)    170.2247         0.010653   
    498. D(C   5,C   4,C   3,O   8)    172.3459         0.010653   
    499. D(O  10,C   5,C   4,C   3)    -50.1199         0.010384   
    500. D(C   6,C   5,C   4,O   9)     72.9443         0.010384   
    501. D(C   6,C   5,C   4,C   3)   -170.8874         0.010384   
    502. D(H  17,C   6,C   5,C   4)    -10.9693         0.010980   
    503. D(O  11,C   6,C   5,O  10)    105.4430         0.010980   
    504. D(O  11,C   6,C   5,C   4)   -131.5270         0.010980   
    505. D(H  19,O   7,C   2,C   3)    -48.7476         0.022356   
    506. D(H  19,O   7,C   2,C   1)   -167.1670         0.022356   
    507. D(H  20,O   8,C   3,C   4)     52.1127         0.022626   
    508. D(H  20,O   8,C   3,C   2)    173.4219         0.022626   
    509. D(C 113,O   9,C   4,C   3)    123.8544         0.020587   
    510. D(C 113,O   9,C   4,C   5)   -116.3620         0.020587   
    511. D(C   1,O  10,C   5,C   6)   -179.7234         0.019348   
    512. D(C   1,O  10,C   5,C   4)     56.7114         0.019348   
    513. D(C   5,O  10,C   1,C   2)    -63.1613         0.023474   
    514. D(C   5,O  10,C   1,H  12)    177.9285         0.023474   
    515. D(H  21,O  11,C   6,H  17)     66.8556         0.022588   
    516. D(H  21,O  11,C   6,C   5)   -172.5982         0.022588   
    517. D(O  28,C  23,C  22,O  30)   -178.2742         0.010640   
    518. D(C  24,C  23,C  22,H  32)    175.0576         0.010640   
    519. D(C  24,C  23,C  22,O  30)     59.8092         0.010640   
    520. D(C  25,C  24,C  23,C  22)    -56.1575         0.011272   
    521. D(C  25,C  24,C  23,O  28)   -177.6742         0.011272   
    522. D(O 147,C  24,C  23,C  22)   -178.6847         0.011272   
    523. D(O  29,C  25,C  24,C  23)    170.8978         0.010736   
    524. D(C  26,C  25,C  24,C  23)     51.6449         0.010736   
    525. D(C  26,C  25,C  24,O 147)    171.1197         0.010736   
    526. D(O  30,C  26,C  25,C  24)    -50.2646         0.010350   
    527. D(C  27,C  26,C  25,C  24)   -169.6241         0.010350   
    528. D(C  27,C  26,C  25,O  29)     73.3027         0.010350   
    529. D(O  31,C  27,C  26,O  30)     67.2986         0.011305   
    530. D(H  36,C  27,C  26,C  25)    -49.6187         0.011305   
    531. D(O  31,C  27,C  26,C  25)   -170.2085         0.011305   
    532. D(H  38,O  28,C  23,C  24)    -44.7022         0.022444   
    533. D(H  38,O  28,C  23,C  22)   -165.5217         0.022444   
    534. D(C   1,O  29,C  25,C  26)   -113.4956         0.020725   
    535. D(C   1,O  29,C  25,C  24)    126.8987         0.020725   
    536. D(C  25,O  29,C   1,O  10)    112.3533         0.023120   
    537. D(C  25,O  29,C   1,C   2)   -126.2753         0.023120   
    538. D(C  22,O  30,C  26,C  27)    178.1237         0.019750   
    539. D(C  22,O  30,C  26,C  25)     56.2810         0.019750   
    540. D(C  26,O  30,C  22,H  32)   -178.8271         0.024083   
    541. D(C  26,O  30,C  22,C  23)    -60.7399         0.024083   
    542. D(H  39,O  31,C  27,H  36)     74.5968         0.023139   
    543. D(H  39,O  31,C  27,C  26)   -165.8068         0.023139   
    544. D(C  42,C  41,C  40,O  49)     52.3403         0.010691   
    545. D(O  46,C  41,C  40,O  49)    173.0838         0.010691   
    546. D(C  42,C  41,C  40,H  50)    168.3028         0.010691   
    547. D(O  47,C  42,C  41,C  40)   -176.7261         0.010968   
    548. D(C  43,C  42,C  41,O  46)   -173.4133         0.010968   
    549. D(C  43,C  42,C  41,C  40)    -54.2587         0.010968   
    550. D(O  48,C  43,C  42,C  41)    175.2209         0.010155   
    551. D(C  44,C  43,C  42,O  47)    174.6192         0.010155   
    552. D(C  44,C  43,C  42,C  41)     56.6842         0.010155   
    553. D(O  49,C  44,C  43,C  42)    -57.1846         0.010354   
    554. D(C  45,C  44,C  43,O  48)     65.0814         0.010354   
    555. D(C  45,C  44,C  43,C  42)   -174.4281         0.010354   
    556. D(H 139,C  45,C  44,C  43)     88.6100         0.011022   
    557. D(N 137,C  45,C  44,O  49)     91.3883         0.011022   
    558. D(N 137,C  45,C  44,C  43)   -148.5346         0.011022   
    559. D(H  55,O  46,C  41,C  42)    -52.4160         0.022371   
    560. D(H  55,O  46,C  41,C  40)   -173.2432         0.022371   
    561. D(H  56,O  47,C  42,C  43)     70.8923         0.023177   
    562. D(H  56,O  47,C  42,C  41)   -169.4037         0.023177   
    563. D(C  22,O  48,C  43,C  44)   -152.0009         0.020766   
    564. D(C  22,O  48,C  43,C  42)     89.0292         0.020766   
    565. D(C  43,O  48,C  22,O  30)    109.5246         0.021029   
    566. D(C  43,O  48,C  22,C  23)   -128.4926         0.021029   
    567. D(C  40,O  49,C  44,C  45)    178.0548         0.019086   
    568. D(C  40,O  49,C  44,C  43)     57.7750         0.019086   
    569. D(C  44,O  49,C  40,H  50)   -173.7572         0.023164   
    570. D(C  44,O  49,C  40,C  41)    -54.9631         0.023164   
    571. D(O  63,C  58,C  57,O  66)   -177.1980         0.010786   
    572. D(C  59,C  58,C  57,H  68)    178.3242         0.010786   
    573. D(C  59,C  58,C  57,O  66)     61.9859         0.010786   
    574. D(O  64,C  59,C  58,C  57)   -172.4264         0.010838   
    575. D(C  60,C  59,C  58,O  63)   -168.1867         0.010838   
    576. D(C  60,C  59,C  58,C  57)    -49.4121         0.010838   
    577. D(O  65,C  60,C  59,C  58)    159.1763         0.010633   
    578. D(C  61,C  60,C  59,O  64)    162.6363         0.010633   
    579. D(C  61,C  60,C  59,C  58)     40.8747         0.010633   
    580. D(O  66,C  61,C  60,C  59)    -42.5931         0.010489   
    581. D(C  62,C  61,C  60,O  65)     80.3444         0.010489   
    582. D(C  62,C  61,C  60,C  59)   -164.8053         0.010489   
    583. D(H  73,C  62,C  61,C  60)     19.1690         0.010124   
    584. D(O  67,C  62,C  61,O  66)    133.6378         0.010124   
    585. D(O  67,C  62,C  61,C  60)   -100.6369         0.010124   
    586. D(H  75,O  63,C  58,C  59)    -52.5003         0.023021   
    587. D(H  75,O  63,C  58,C  57)   -171.4255         0.023021   
    588. D(H  76,O  64,C  59,C  60)     28.4732         0.022436   
    589. D(H  76,O  64,C  59,C  58)    152.5640         0.022436   
    590. D(C  40,O  65,C  60,C  61)    -88.7112         0.019277   
    591. D(C  40,O  65,C  60,C  59)    150.4025         0.019277   
    592. D(C  60,O  65,C  40,O  49)    134.3372         0.022789   
    593. D(C  60,O  65,C  40,C  41)   -102.4797         0.022789   
    594. D(C  57,O  66,C  61,C  62)   -176.5604         0.019611   
    595. D(C  57,O  66,C  61,C  60)     56.5125         0.019611   
    596. D(C  61,O  66,C  57,H  68)    173.7628         0.022777   
    597. D(C  61,O  66,C  57,C  58)    -66.9357         0.022777   
    598. D(H  77,O  67,C  62,H  73)    161.6106         0.022403   
    599. D(H  77,O  67,C  62,C  61)    -76.3271         0.022403   
    600. D(O  84,C  79,C  78,O  87)   -179.4115         0.010624   
    601. D(C  80,C  79,C  78,H  89)    174.1991         0.010624   
    602. D(C  80,C  79,C  78,O  87)     58.7468         0.010624   
    603. D(O  85,C  80,C  79,C  78)   -177.3369         0.011307   
    604. D(C  81,C  80,C  79,O  84)   -175.0909         0.011307   
    605. D(C  81,C  80,C  79,C  78)    -54.6590         0.011307   
    606. D(O  86,C  81,C  80,C  79)    169.8190         0.010395   
    607. D(C  82,C  81,C  80,O  85)    172.3992         0.010395   
    608. D(C  82,C  81,C  80,C  79)     51.5201         0.010395   
    609. D(O  87,C  82,C  81,C  80)    -52.8178         0.010351   
    610. D(C  83,C  82,C  81,O  86)     72.6898         0.010351   
    611. D(C  83,C  82,C  81,C  80)   -173.7011         0.010351   
    612. D(H  94,C  83,C  82,C  81)    -30.3603         0.011027   
    613. D(O  88,C  83,C  82,O  87)     86.3531         0.011027   
    614. D(O  88,C  83,C  82,C  81)   -149.2749         0.011027   
    615. D(H  96,O  84,C  79,C  80)    -46.9553         0.022780   
    616. D(H  96,O  84,C  79,C  78)   -167.3242         0.022780   
    617. D(H  97,O  85,C  80,C  81)     50.8150         0.023047   
    618. D(H  97,O  85,C  80,C  79)    173.1321         0.023047   
    619. D(C  57,O  86,C  81,C  82)   -104.1966         0.020359   
    620. D(C  57,O  86,C  81,C  80)    138.9910         0.020359   
    621. D(C  81,O  86,C  57,O  66)     87.5167         0.024044   
    622. D(C  81,O  86,C  57,C  58)   -152.2346         0.024044   
    623. D(C  78,O  87,C  82,C  83)   -173.4641         0.019670   
    624. D(C  78,O  87,C  82,C  81)     60.0849         0.019670   
    625. D(C  82,O  87,C  78,H  89)    179.7572         0.023144   
    626. D(C  82,O  87,C  78,C  79)    -62.3202         0.023144   
    627. D(H  98,O  88,C  83,H  94)    156.2722         0.021169   
    628. D(H  98,O  88,C  83,C  82)    -82.7905         0.021169   
    629. D(O 104,C 100,C  99,O 107)    178.2510         0.010239   
    630. D(C 101,C 100,C  99,H 108)    170.8382         0.010239   
    631. D(C 101,C 100,C  99,O 107)     55.6834         0.010239   
    632. D(O 105,C 101,C 100,C  99)   -176.3890         0.010931   
    633. D(C 102,C 101,C 100,O 104)   -177.8811         0.010931   
    634. D(C 102,C 101,C 100,C  99)    -54.5735         0.010931   
    635. D(C 103,C 102,C 101,C 100)     56.3737         0.010251   
    636. D(H   0,C 102,C 101,O 105)     56.3420         0.010251   
    637. D(H   0,C 102,C 101,C 100)    -61.5790         0.010251   
    638. D(C 143,C 103,C 102,H   0)    -59.5112         0.010287   
    639. D(O 107,C 103,C 102,C 101)    -59.3724         0.010287   
    640. D(O 107,C 103,C 102,H   0)     58.9327         0.010287   
    641. D(H 111,O 104,C 100,C 101)    -53.5950         0.022040   
    642. D(H 111,O 104,C 100,C  99)   -176.0765         0.022040   
    643. D(H 112,O 105,C 101,C 102)     69.8416         0.022520   
    644. D(H 112,O 105,C 101,C 100)   -170.6709         0.022520   
    645. D(C  78,O 106,C 102,C 101)     93.1279         0.020383   
    646. D(C  78,O 106,C 102,H   0)    -27.1842         0.020383   
    647. D(C 102,O 106,C  78,O  87)    104.5184         0.022069   
    648. D(C 102,O 106,C  78,C  79)   -133.7811         0.022069   
    649. D(C  99,O 107,C 103,C 143)   -173.3644         0.019837   
    650. D(C  99,O 107,C 103,C 102)     64.8284         0.019837   
    651. D(C 103,O 107,C  99,H 108)    179.4173         0.023152   
    652. D(C 103,O 107,C  99,C 100)    -62.4565         0.023152   
    653. D(O 122,C 113,O   9,C   4)     98.1066         0.024374   
    654. D(C 114,C 113,O   9,C   4)   -141.4971         0.024374   
    655. D(O 119,C 114,C 113,O   9)     61.2893         0.010840   
    656. D(C 115,C 114,C 113,O 122)     63.0345         0.010840   
    657. D(C 115,C 114,C 113,O   9)    -58.6241         0.010840   
    658. D(O 120,C 115,C 114,C 113)   -179.9029         0.010730   
    659. D(C 116,C 115,C 114,O 119)   -172.7300         0.010730   
    660. D(C 116,C 115,C 114,C 113)    -54.4983         0.010730   
    661. D(O 121,C 116,C 115,C 114)    166.6491         0.010759   
    662. D(C 117,C 116,C 115,O 120)    171.2338         0.010759   
    663. D(C 117,C 116,C 115,C 114)     46.8110         0.010759   
    664. D(O 122,C 117,C 116,C 115)    -45.3766         0.010002   
    665. D(C 118,C 117,C 116,O 121)     79.0747         0.010002   
    666. D(C 118,C 117,C 116,C 115)   -163.8057         0.010002   
    667. D(H 129,C 118,C 117,C 116)     54.0554         0.010798   
    668. D(O 123,C 118,C 117,O 122)    171.5134         0.010798   
    669. D(O 123,C 118,C 117,C 116)    -65.5087         0.010798   
    670. D(H 131,O 119,C 114,C 115)    -43.5446         0.022415   
    671. D(H 131,O 119,C 114,C 113)   -161.1797         0.022415   
    672. D(H 132,O 120,C 115,C 116)    -22.4570         0.022218   
    673. D(H 132,O 120,C 115,C 114)    102.2640         0.022218   
    674. D(C  99,O 121,C 116,C 117)   -106.3906         0.019144   
    675. D(C  99,O 121,C 116,C 115)    132.5743         0.019144   
    676. D(C 116,O 121,C  99,O 107)    161.2743         0.022542   
    677. D(C 116,O 121,C  99,C 100)    -77.8975         0.022542   
    678. D(C 113,O 122,C 117,C 118)    178.4651         0.019802   
    679. D(C 113,O 122,C 117,C 116)     55.2200         0.019802   
    680. D(C 117,O 122,C 113,C 114)    -64.8470         0.023093   
    681. D(C 117,O 122,C 113,O   9)     53.6137         0.023093   
    682. D(H 133,O 123,C 118,H 129)   -170.4891         0.023305   
    683. D(H 133,O 123,C 118,C 117)    -49.2408         0.023305   
    684. D(C 142,C 135,C 134,N 136)    178.9475         0.024853   
    685. D(N 137,C 135,C 134,C 141)   -174.1626         0.024853   
    686. D(N 137,C 135,C 134,N 136)      1.4373         0.024853   
    687. D(C 143,N 136,C 134,C 135)    169.8480         0.024037   
    688. D(C 138,N 136,C 134,C 141)    171.0224         0.024037   
    689. D(C 138,N 136,C 134,C 135)     -3.9354         0.024037   
    690. D(C 138,N 137,C 135,C 134)      1.5954         0.024205   
    691. D(C  45,N 137,C 135,C 142)     -2.0983         0.024205   
    692. D(C  45,N 137,C 135,C 134)    175.0777         0.024205   
    693. D(C 138,N 137,C  45,C  44)    -38.8332         0.017141   
    694. D(C 135,N 137,C  45,H 139)    -89.0807         0.017141   
    695. D(C 135,N 137,C  45,C  44)    149.2784         0.017141   
    696. D(N 150,C 138,N 137,C  45)      2.3632         0.034325   
    697. D(N 136,C 138,N 137,C 135)     -4.1592         0.034325   
    698. D(N 136,C 138,N 137,C  45)   -176.9011         0.034325   
    699. D(N 150,C 138,N 136,C 134)   -174.1859         0.032548   
    700. D(N 137,C 138,N 136,C 143)   -168.4116         0.032548   
    701. D(N 137,C 138,N 136,C 134)      5.0727         0.032548   
    702. D(H 157,C 141,C 134,C 135)    178.2755         0.028343   
    703. D(C 153,C 141,C 134,N 136)   -176.1088         0.028343   
    704. D(C 153,C 141,C 134,C 135)     -1.7543         0.028343   
    705. D(H 155,C 142,C 135,C 134)    178.6461         0.028337   
    706. D(C 152,C 142,C 135,N 137)    174.8246         0.028337   
    707. D(C 152,C 142,C 135,C 134)     -2.0091         0.028337   
    708. D(H 145,C 143,N 136,C 134)     59.6953         0.017426   
    709. D(C 103,C 143,N 136,C 138)    112.7815         0.017426   
    710. D(C 103,C 143,N 136,C 134)    -59.7269         0.017426   
    711. D(H 145,C 143,C 103,C 102)     87.3382         0.010157   
    712. D(N 136,C 143,C 103,O 107)     88.6576         0.010157   
    713. D(N 136,C 143,C 103,C 102)   -152.3660         0.010157   
    714. D(H 149,O 147,C  24,C  25)     42.1446         0.022969   
    715. D(H 149,O 147,C  24,C  23)    162.8901         0.022969   
    716. D(H 158,N 150,C 138,N 136)    166.1133         0.039718   
    717. D(H 151,N 150,C 138,N 137)   -162.6182         0.039718   
    718. D(H 151,N 150,C 138,N 136)     16.5342         0.039718   
    719. D(H 154,C 152,C 142,C 135)   -179.7420         0.028467   
    720. D(C 153,C 152,C 142,H 155)    178.6265         0.028467   
    721. D(C 153,C 152,C 142,C 135)     -0.7391         0.028467   
    722. D(H 156,C 153,C 152,C 142)   -176.0586         0.026906   
    723. D(C 141,C 153,C 152,H 154)   -178.7129         0.026906   
    724. D(C 141,C 153,C 152,C 142)      2.2924         0.026906   
    725. D(H 156,C 153,C 141,C 134)    177.3651         0.028010   
    726. D(C 152,C 153,C 141,H 157)    178.9824         0.028010   
    727. D(C 152,C 153,C 141,C 134)     -0.9878         0.028010   
    -----------------------------------------------------------------

Number of atoms                         .... 159
Number of degrees of freedom            .... 727

         *************************************************************
         *                GEOMETRY OPTIMIZATION CYCLE   1            *
         *************************************************************
---------------------------------
CARTESIAN COORDINATES (ANGSTROEM)
---------------------------------
  H    -31.662672  -29.393910  -13.700402
  C    -21.749356  -27.118304   -9.734315
  C    -21.943935  -28.079532   -8.547693
  C    -23.420777  -28.466373   -8.504470
  C    -24.287000  -27.200374   -8.416031
  C    -23.910947  -26.189076   -9.515254
  C    -24.596934  -24.833182   -9.319218
  O    -21.124009  -29.203687   -8.739078
  O    -23.633843  -29.317204   -7.409508
  O    -25.617904  -27.639645   -8.612913
  O    -22.506959  -25.957357   -9.552334
  O    -25.180455  -24.430549  -10.542472
  H    -20.703879  -26.787870   -9.780561
  H    -21.673937  -27.559489   -7.617557
  H    -23.673144  -28.978487   -9.446043
  H    -24.161531  -26.745998   -7.424599
  H    -24.237087  -26.605295  -10.478264
  H    -25.369943  -24.914058   -8.544889
  H    -23.833159  -24.118211   -8.992905
  H    -21.412887  -29.871584   -8.101395
  H    -24.587984  -29.478604   -7.320704
  H    -25.505275  -23.529464  -10.438818
  C    -21.038483  -28.680679  -14.757904
  C    -20.335708  -29.501210  -13.665058
  C    -21.108469  -29.351603  -12.354974
  C    -21.229439  -27.864077  -11.994282
  C    -21.786651  -27.064059  -13.187344
  C    -21.674843  -25.560372  -12.940432
  O    -20.255216  -30.849802  -14.047193
  O    -22.126596  -27.790258  -10.903315
  O    -21.080364  -27.335939  -14.389744
  O    -22.394102  -24.878376  -13.944246
  H    -20.446107  -28.708121  -15.680113
  H    -19.325370  -29.086089  -13.528463
  H    -20.238769  -27.481207  -11.715672
  H    -22.844062  -27.337656  -13.307442
  H    -22.086142  -25.330962  -11.949029
  H    -20.613576  -25.289509  -12.972876
  H    -20.025298  -31.347660  -13.249434
  H    -22.144987  -23.948787  -13.924617
  C    -24.302242  -30.932893  -18.230067
  C    -22.799013  -31.225783  -18.112412
  C    -22.301449  -30.922904  -16.695155
  C    -22.681953  -29.473534  -16.324949
  C    -24.207512  -29.312942  -16.468528
  C    -24.627583  -27.856857  -16.246890
  O    -22.601020  -32.581315  -18.421804
  O    -20.919855  -31.147241  -16.714128
  O    -22.338369  -29.185047  -14.983855
  O    -24.624704  -29.643453  -17.790689
  H    -24.597710  -30.951793  -19.283025
  H    -22.250257  -30.582920  -18.816403
  H    -22.800083  -31.599586  -15.984933
  H    -22.174624  -28.781416  -17.011180
  H    -24.683357  -29.979468  -15.737225
  H    -21.669999  -32.773037  -18.238180
  H    -20.579926  -31.132508  -15.801727
  C    -28.084562  -34.418088  -17.697698
  C    -26.748560  -35.132450  -17.452415
  C    -25.683519  -34.072479  -17.143580
  C    -25.676224  -32.927351  -18.168479
  C    -27.088171  -32.480485  -18.586359
  C    -27.144859  -31.609021  -19.859632
  O    -26.917472  -36.014378  -16.377418
  O    -24.429361  -34.701453  -17.090498
  O    -25.029831  -31.864271  -17.475886
  O    -27.971381  -33.571882  -18.809884
  O    -27.281600  -30.243637  -19.561466
  H    -28.868631  -35.143173  -17.952069
  H    -26.466778  -35.671763  -18.368429
  H    -25.927726  -33.630883  -16.163820
  H    -25.090603  -33.238226  -19.041784
  H    -27.465364  -31.885684  -17.740814
  H    -26.233767  -31.719126  -20.450423
  H    -27.979483  -31.972610  -20.468926
  H    -26.042252  -36.353303  -16.146946
  H    -23.748921  -34.054355  -17.330468
  H    -28.200322  -30.080598  -19.303405
  C    -31.298016  -31.731702  -14.443582
  C    -31.088501  -33.205304  -14.060509
  C    -29.769083  -33.691599  -14.658119
  C    -29.731662  -33.446871  -16.178208
  C    -30.089906  -31.974209  -16.455343
  C    -30.244940  -31.601502  -17.932713
  O    -31.090725  -33.320793  -12.663210
  O    -29.620005  -35.050515  -14.353717
  O    -28.386133  -33.717504  -16.529605
  O    -31.312440  -31.596038  -15.836923
  O    -29.871344  -30.244516  -18.137748
  H    -32.288671  -31.405018  -14.107616
  H    -31.913581  -33.789240  -14.496217
  H    -28.950278  -33.104043  -14.212172
  H    -30.424372  -34.125092  -16.691291
  H    -29.267886  -31.385612  -16.017448
  H    -29.600667  -32.216961  -18.557615
  H    -31.283608  -31.768455  -18.225976
  H    -30.759792  -34.204510  -12.450535
  H    -28.841339  -35.385832  -14.822304
  H    -30.627252  -29.690814  -17.913026
  C    -30.278464  -27.568406  -11.398888
  C    -31.316517  -28.663838  -11.080720
  C    -30.913888  -29.980684  -11.753954
  C    -30.713682  -29.734546  -13.263123
  C    -29.665272  -28.617880  -13.437969
  O    -31.458400  -28.850965   -9.694103
  O    -31.945590  -30.893936  -11.486506
  O    -30.283390  -30.926406  -13.896411
  O    -30.147387  -27.450985  -12.787743
  H    -30.645571  -26.591474  -11.057429
  H    -32.274410  -28.335358  -11.512525
  H    -29.962322  -30.332039  -11.329648
  H    -32.074620  -29.591287   -9.587396
  H    -31.669719  -31.783384  -11.765697
  C    -26.591206  -27.360803   -7.655717
  C    -27.488577  -28.601636   -7.565029
  C    -28.075491  -28.845929   -8.962731
  C    -28.787357  -27.592285   -9.490114
  C    -27.934956  -26.317797   -9.293882
  C    -28.747050  -25.023473   -9.435663
  O    -26.699960  -29.688397   -7.154295
  O    -28.915091  -29.972837   -8.955468
  O    -29.001600  -27.830117  -10.878560
  O    -27.357308  -26.239933   -7.998583
  O    -29.248564  -24.817624  -10.725474
  H    -26.151327  -27.130928   -6.676405
  H    -28.296861  -28.410872   -6.842953
  H    -27.238054  -29.072919   -9.635116
  H    -29.742796  -27.471708   -8.967643
  H    -27.136706  -26.337479  -10.053263
  H    -29.606341  -25.049221   -8.761915
  H    -28.096850  -24.193330   -9.127367
  H    -27.184196  -30.493187   -7.387325
  H    -29.840044  -29.675820   -8.941186
  H    -28.527836  -24.940507  -11.355984
  C    -27.580441  -26.591017  -14.549659
  C    -26.212941  -26.551550  -14.850881
  N    -28.096315  -27.734489  -15.160118
  N    -25.939061  -27.651554  -15.662533
  C    -27.097843  -28.310263  -15.875348
  H    -24.576223  -27.352526  -17.218694
  H    -23.909587  -27.392712  -15.568387
  C    -28.192037  -25.562770  -13.853923
  C    -25.403854  -25.519600  -14.408251
  C    -29.426854  -28.252664  -14.918581
  H    -28.724292  -28.942745  -12.976628
  H    -30.162332  -27.491311  -15.193293
  H    -29.577964  -29.147779  -15.520126
  O    -20.424136  -30.085986  -11.377661
  H    -22.126604  -29.749187  -12.496945
  H    -20.718607  -29.803361  -10.491972
  N    -27.235618  -29.360291  -16.682614
  H    -28.158571  -29.635785  -16.996385
  C    -26.015580  -24.506997  -13.691130
  C    -27.383264  -24.516867  -13.439752
  H    -25.414811  -23.686958  -13.335911
  H    -24.346245  -25.475806  -14.607482
  H    -27.831272  -23.676590  -12.932189
  H    -29.247163  -25.575144  -13.643798
  H    -26.474909  -29.574990  -17.330291

----------------------------
CARTESIAN COORDINATES (A.U.)
----------------------------
  NO LB      ZA    FRAG     MASS         X           Y           Z
   0 H     1.0000    0     1.008  -59.833779  -55.546439  -25.890007
   1 C     6.0000    0    12.011  -41.100327  -51.246168  -18.395190
   2 C     6.0000    0    12.011  -41.468028  -53.062625  -16.152799
   3 C     6.0000    0    12.011  -44.258855  -53.793649  -16.071119
   4 C     6.0000    0    12.011  -45.895779  -51.401258  -15.903993
   5 C     6.0000    0    12.011  -45.185142  -49.490181  -17.981225
   6 C     6.0000    0    12.011  -46.481468  -46.927913  -17.610770
   7 O     8.0000    0    15.999  -39.918593  -55.186971  -16.514463
   8 O     8.0000    0    15.999  -44.661491  -55.401487  -14.001941
   9 O     8.0000    0    15.999  -48.410822  -52.231360  -16.276046
  10 O     8.0000    0    15.999  -42.531988  -49.052296  -18.051295
  11 O     8.0000    0    15.999  -47.584163  -46.167047  -19.922385
  12 H     1.0000    0     1.008  -39.124661  -50.621739  -18.482583
  13 H     1.0000    0     1.008  -40.957805  -52.079887  -14.395097
  14 H     1.0000    0     1.008  -44.735758  -54.761404  -17.850434
  15 H     1.0000    0     1.008  -45.658676  -50.542612  -14.030458
  16 H     1.0000    0     1.008  -45.801457  -50.276722  -19.801049
  17 H     1.0000    0     1.008  -47.942244  -47.080746  -16.147500
  18 H     1.0000    0     1.008  -45.038143  -45.576814  -16.994128
  19 H     1.0000    0     1.008  -40.464492  -56.449113  -15.309418
  20 H     1.0000    0     1.008  -46.464556  -55.706489  -13.834126
  21 H     1.0000    0     1.008  -48.197985  -44.464243  -19.726506
  22 C     6.0000    0    12.011  -39.756970  -54.198628  -27.888397
  23 C     6.0000    0    12.011  -38.428919  -55.749208  -25.823217
  24 C     6.0000    0    12.011  -39.889226  -55.466491  -23.347517
  25 C     6.0000    0    12.011  -40.117825  -52.655474  -22.665908
  26 C     6.0000    0    12.011  -41.170805  -51.143659  -24.920468
  27 C     6.0000    0    12.011  -40.959518  -48.302104  -24.453872
  28 O     8.0000    0    15.999  -38.276810  -58.297678  -26.545349
  29 O     8.0000    0    15.999  -41.813206  -52.515977  -20.604279
  30 O     8.0000    0    15.999  -39.836116  -51.657438  -27.192676
  31 O     8.0000    0    15.999  -42.318719  -47.013318  -26.350807
  32 H     1.0000    0     1.008  -38.637543  -54.250486  -29.631119
  33 H     1.0000    0     1.008  -36.519657  -54.964743  -25.565089
  34 H     1.0000    0     1.008  -38.245731  -51.931954  -22.139412
  35 H     1.0000    0     1.008  -43.169020  -51.660684  -25.147422
  36 H     1.0000    0     1.008  -41.736760  -47.868580  -22.580393
  37 H     1.0000    0     1.008  -38.954013  -47.790246  -24.515182
  38 H     1.0000    0     1.008  -37.842330  -59.238493  -25.037802
  39 H     1.0000    0     1.008  -41.847960  -45.256649  -26.313713
  40 C     6.0000    0    12.011  -45.924582  -58.454697  -34.449835
  41 C     6.0000    0    12.011  -43.083891  -59.008178  -34.227498
  42 C     6.0000    0    12.011  -42.143631  -58.435819  -31.549270
  43 C     6.0000    0    12.011  -42.862680  -55.696907  -30.849683
[...]
 69 H      0.9597     1.0000     0.0403     0.9913     0.9913    -0.0000
 70 H      0.9690     1.0000     0.0310     1.0060     1.0060    -0.0000
 71 H      0.9464     1.0000     0.0536     1.0034     1.0034    -0.0000
 72 H      0.9817     1.0000     0.0183     1.0123     1.0123    -0.0000
 73 H      0.9634     1.0000     0.0366     0.9890     0.9890    -0.0000
 74 H      0.9497     1.0000     0.0503     0.9952     0.9952    -0.0000
 75 H      0.7927     1.0000     0.2073     0.9977     0.9977     0.0000
 76 H      0.7977     1.0000     0.2023     1.0256     1.0256    -0.0000
 77 H      0.7994     1.0000     0.2006     1.0216     1.0216    -0.0000
 78 C      5.4873     6.0000     0.5127     3.7573     3.7573     0.0000
 79 C      5.7246     6.0000     0.2754     3.8363     3.8363    -0.0000
 80 C      5.7719     6.0000     0.2281     3.9006     3.9006    -0.0000
 81 C      5.7816     6.0000     0.2184     3.7826     3.7826    -0.0000
 82 C      5.8394     6.0000     0.1606     3.7278     3.7278     0.0000
 83 C      5.6598     6.0000     0.3402     3.7734     3.7734    -0.0000
 84 O      8.4554     8.0000    -0.4554     1.9602     1.9602    -0.0000
 85 O      8.4473     8.0000    -0.4473     1.9646     1.9646    -0.0000
 86 O      8.6350     8.0000    -0.6350     1.7207     1.7207     0.0000
 87 O      8.6057     8.0000    -0.6057     1.7886     1.7886    -0.0000
 88 O      8.4933     8.0000    -0.4933     1.9409     1.9409     0.0000
 89 H      0.9444     1.0000     0.0556     1.0097     1.0097     0.0000
 90 H      0.9604     1.0000     0.0396     0.9879     0.9879    -0.0000
 91 H      0.9627     1.0000     0.0373     1.0038     1.0038     0.0000
 92 H      0.9621     1.0000     0.0379     0.9951     0.9951    -0.0000
 93 H      0.9760     1.0000     0.0240     1.0058     1.0058    -0.0000
 94 H      0.9353     1.0000     0.0647     1.0093     1.0093     0.0000
 95 H      0.9473     1.0000     0.0527     0.9955     0.9955    -0.0000
 96 H      0.7817     1.0000     0.2183     0.9958     0.9958    -0.0000
 97 H      0.7876     1.0000     0.2124     1.0178     1.0178    -0.0000
 98 H      0.7900     1.0000     0.2100     0.9876     0.9876     0.0000
 99 C      5.4589     6.0000     0.5411     3.7453     3.7453    -0.0000
100 C      5.7635     6.0000     0.2365     3.8266     3.8266    -0.0000
101 C      5.7712     6.0000     0.2288     3.8824     3.8824    -0.0000
102 C      5.8028     6.0000     0.1972     3.8110     3.8110    -0.0000
103 C      5.7656     6.0000     0.2344     3.7876     3.7876    -0.0000
104 O      8.4527     8.0000    -0.4527     1.9581     1.9581    -0.0000
105 O      8.4678     8.0000    -0.4678     1.9533     1.9533     0.0000
106 O      8.6251     8.0000    -0.6251     1.7325     1.7325     0.0000
107 O      8.6186     8.0000    -0.6186     1.7882     1.7882    -0.0000
108 H      0.9331     1.0000     0.0669     1.0151     1.0151    -0.0000
109 H      0.9650     1.0000     0.0350     0.9885     0.9885    -0.0000
110 H      0.9540     1.0000     0.0460     1.0205     1.0205    -0.0000
111 H      0.7842     1.0000     0.2158     0.9967     0.9967     0.0000
112 H      0.7766     1.0000     0.2234     1.0287     1.0287    -0.0000
113 C      5.4686     6.0000     0.5314     3.7439     3.7439    -0.0000
114 C      5.7279     6.0000     0.2721     3.8375     3.8375    -0.0000
115 C      5.7549     6.0000     0.2451     3.8666     3.8666    -0.0000
116 C      5.7956     6.0000     0.2044     3.7587     3.7587    -0.0000
117 C      5.8211     6.0000     0.1789     3.7660     3.7660    -0.0000
118 C      5.6473     6.0000     0.3527     3.8529     3.8529    -0.0000
119 O      8.4520     8.0000    -0.4520     1.9568     1.9568     0.0000
120 O      8.4629     8.0000    -0.4629     1.9557     1.9557    -0.0000
121 O      8.6304     8.0000    -0.6304     1.7319     1.7319    -0.0000
122 O      8.6111     8.0000    -0.6111     1.7777     1.7777    -0.0000
123 O      8.4574     8.0000    -0.4574     1.9509     1.9509    -0.0000
124 H      0.9560     1.0000     0.0440     0.9976     0.9976    -0.0000
125 H      0.9739     1.0000     0.0261     0.9910     0.9910    -0.0000
126 H      0.9666     1.0000     0.0334     1.0072     1.0072     0.0000
127 H      0.9564     1.0000     0.0436     1.0064     1.0064    -0.0000
128 H      0.9693     1.0000     0.0307     1.0017     1.0017     0.0000
129 H      0.9683     1.0000     0.0317     0.9932     0.9932    -0.0000
130 H      0.9701     1.0000     0.0299     0.9883     0.9883    -0.0000
131 H      0.7872     1.0000     0.2128     0.9967     0.9967    -0.0000
132 H      0.7934     1.0000     0.2066     1.0373     1.0373     0.0000
133 H      0.7901     1.0000     0.2099     0.9972     0.9972    -0.0000
134 C      5.7770     6.0000     0.2230     3.7703     3.7703    -0.0000
135 C      5.7793     6.0000     0.2207     3.7429     3.7429    -0.0000
136 N      7.6106     7.0000    -0.6106     3.0244     3.0244    -0.0000
137 N      7.6154     7.0000    -0.6154     3.0065     3.0065    -0.0000
138 C      5.3688     6.0000     0.6312     3.9339     3.9339    -0.0000
139 H      0.9182     1.0000     0.0818     0.9978     0.9978    -0.0000
140 H      0.8963     1.0000     0.1037     1.0107     1.0107    -0.0000
141 C      6.0699     6.0000    -0.0699     3.9145     3.9145    -0.0000
142 C      6.0929     6.0000    -0.0929     3.9206     3.9206    -0.0000
143 C      5.6982     6.0000     0.3018     3.7327     3.7327    -0.0000
144 H      0.9482     1.0000     0.0518     1.0018     1.0018    -0.0000
145 H      0.9264     1.0000     0.0736     0.9971     0.9971    -0.0000
146 H      0.9472     1.0000     0.0528     1.0371     1.0371     0.0000
147 O      8.4654     8.0000    -0.4654     1.9566     1.9566    -0.0000
148 H      0.9729     1.0000     0.0271     1.0026     1.0026     0.0000
149 H      0.7807     1.0000     0.2193     1.0359     1.0359    -0.0000
150 N      7.2780     7.0000    -0.2780     3.2455     3.2455    -0.0000
151 H      0.8013     1.0000     0.1987     1.0273     1.0273    -0.0000
152 C      6.0020     6.0000    -0.0020     3.8785     3.8785    -0.0000
153 C      6.0689     6.0000    -0.0689     3.8332     3.8332    -0.0000
154 H      0.9423     1.0000     0.0577     0.9917     0.9917    -0.0000
155 H      0.9171     1.0000     0.0829     1.0358     1.0358    -0.0000
156 H      0.9293     1.0000     0.0707     0.9909     0.9909    -0.0000
157 H      0.9279     1.0000     0.0721     1.0106     1.0106     0.0000
158 H      0.7600     1.0000     0.2400     1.0088     1.0088    -0.0000

  Mayer bond orders larger than 0.100000
B(  0-H ,102-C ) :   0.9469 B(  1-C ,  2-C ) :   1.0139 B(  1-C , 10-O ) :   0.9211 
B(  1-C , 12-H ) :   0.9621 B(  1-C , 29-O ) :   0.8643 B(  2-C ,  3-C ) :   1.0019 
B(  2-C ,  7-O ) :   0.9215 B(  2-C , 13-H ) :   0.9634 B(  3-C ,  4-C ) :   1.0199 
B(  3-C ,  8-O ) :   0.9910 B(  3-C , 14-H ) :   0.9535 B(  4-C ,  5-C ) :   0.9818 
B(  4-C ,  9-O ) :   0.8306 B(  4-C , 15-H ) :   0.9475 B(  5-C ,  6-C ) :   1.0100 
B(  5-C , 10-O ) :   0.8412 B(  5-C , 16-H ) :   0.9503 B(  6-C , 11-O ) :   0.9847 
B(  6-C , 17-H ) :   0.9772 B(  6-C , 18-H ) :   0.9630 B(  7-O , 19-H ) :   0.9558 
B(  8-O , 20-H ) :   0.9415 B(  9-O ,113-C ) :   0.8746 B( 11-O , 21-H ) :   0.9772 
B( 22-C , 23-C ) :   1.0140 B( 22-C , 30-O ) :   0.9413 B( 22-C , 32-H ) :   0.9581 
B( 22-C , 48-O ) :   0.8409 B( 23-C , 24-C ) :   1.0025 B( 23-C , 28-O ) :   0.9134 
B( 23-C , 33-H ) :   0.9654 B( 24-C , 25-C ) :   1.0204 B( 24-C ,147-O ) :   0.9922 
B( 24-C ,148-H ) :   0.9538 B( 25-C , 26-C ) :   0.9873 B( 25-C , 29-O ) :   0.8427 
B( 25-C , 34-H ) :   0.9472 B( 26-C , 27-C ) :   1.0246 B( 26-C , 30-O ) :   0.8415 
B( 26-C , 35-H ) :   0.9463 B( 27-C , 31-O ) :   0.9529 B( 27-C , 36-H ) :   0.9730 
B( 27-C , 37-H ) :   0.9578 B( 28-O , 38-H ) :   0.9510 B( 31-O , 39-H ) :   0.9721 
B( 40-C , 41-C ) :   1.0127 B( 40-C , 49-O ) :   0.8638 B( 40-C , 50-H ) :   0.9583 
B( 40-C , 65-O ) :   0.8614 B( 41-C , 42-C ) :   1.0011 B( 41-C , 46-O ) :   0.9436 
B( 41-C , 51-H ) :   0.9588 B( 42-C , 43-C ) :   1.0160 B( 42-C , 47-O ) :   0.9914 
B( 42-C , 52-H ) :   0.9530 B( 43-C , 44-C ) :   1.0156 B( 43-C , 48-O ) :   0.8635 
B( 43-C , 53-H ) :   0.9495 B( 44-C , 45-C ) :   1.0192 B( 44-C , 49-O ) :   0.8282 
B( 44-C , 54-H ) :   0.9514 B( 45-C ,137-N ) :   0.7763 B( 45-C ,139-H ) :   0.9593 
B( 45-C ,140-H ) :   0.9746 B( 46-O , 55-H ) :   0.9595 B( 47-O , 56-H ) :   0.9327 
B( 57-C , 58-C ) :   1.0080 B( 57-C , 66-O ) :   0.8904 B( 57-C , 68-H ) :   0.9631 
B( 57-C , 86-O ) :   0.8737 B( 58-C , 59-C ) :   0.9962 B( 58-C , 63-O ) :   0.9502 
B( 58-C , 69-H ) :   0.9653 B( 59-C , 60-C ) :   1.0168 B( 59-C , 64-O ) :   0.9966 
B( 59-C , 70-H ) :   0.9530 B( 60-C , 61-C ) :   0.9946 B( 60-C , 65-O ) :   0.8246 
B( 60-C , 71-H ) :   0.9483 B( 61-C , 62-C ) :   0.9709 B( 61-C , 66-O ) :   0.8446 
B( 61-C , 72-H ) :   0.9525 B( 62-C , 67-O ) :   0.9106 B( 62-C , 73-H ) :   0.9789 
B( 62-C , 74-H ) :   0.9883 B( 63-O , 75-H ) :   0.9647 B( 64-O , 76-H ) :   0.9583 
B( 67-O , 77-H ) :   0.9627 B( 78-C , 79-C ) :   1.0121 B( 78-C , 87-O ) :   0.9106 
B( 78-C , 89-H ) :   0.9574 B( 78-C ,106-O ) :   0.8675 B( 79-C , 80-C ) :   1.0003 
B( 79-C , 84-O ) :   0.9319 B( 79-C , 90-H ) :   0.9638 B( 80-C , 81-C ) :   1.0094 
B( 80-C , 85-O ) :   0.9899 B( 80-C , 91-H ) :   0.9594 B( 81-C , 82-C ) :   0.9835 
B( 81-C , 86-O ) :   0.8397 B( 81-C , 92-H ) :   0.9501 B( 82-C , 83-C ) :   0.9801 
B( 82-C , 87-O ) :   0.8564 B( 82-C , 93-H ) :   0.9551 B( 83-C , 88-O ) :   0.8689 
B( 83-C , 94-H ) :   0.9807 B( 83-C , 95-H ) :   0.9724 B( 84-O , 96-H ) :   0.9535 
B( 85-O , 97-H ) :   0.9521 B( 88-O , 98-H ) :   0.9678 B( 99-C ,100-C ) :   1.0154 
B( 99-C ,107-O ) :   0.8851 B( 99-C ,108-H ) :   0.9585 B( 99-C ,121-O ) :   0.8698 
B(100-C ,101-C ) :   0.9973 B(100-C ,104-O ) :   0.9143 B(100-C ,109-H ) :   0.9587 
B(101-C ,102-C ) :   1.0125 B(101-C ,105-O ) :   0.9791 B(101-C ,110-H ) :   0.9511 
B(102-C ,103-C ) :   1.0034 B(102-C ,106-O ) :   0.8452 B(103-C ,107-O ) :   0.8690 
B(103-C ,143-C ) :   1.0063 B(103-C ,144-H ) :   0.9515 B(104-O ,111-H ) :   0.9548 
B(105-O ,112-H ) :   0.9373 B(113-C ,114-C ) :   1.0091 B(113-C ,122-O ) :   0.9006 
B(113-C ,124-H ) :   0.9614 B(114-C ,115-C ) :   0.9932 B(114-C ,119-O ) :   0.9264 
B(114-C ,125-H ) :   0.9610 B(115-C ,116-C ) :   1.0245 B(115-C ,120-O ) :   0.9486 
B(115-C ,126-H ) :   0.9466 B(116-C ,117-C ) :   0.9707 B(116-C ,121-O ) :   0.8364 
B(116-C ,127-H ) :   0.9422 B(117-C ,118-C ) :   1.0182 B(117-C ,122-O ) :   0.8418 
B(117-C ,128-H ) :   0.9504 B(118-C ,123-O ) :   0.9186 B(118-C ,129-H ) :   0.9648 
B(118-C ,130-H ) :   0.9880 B(119-O ,131-H ) :   0.9568 B(120-O ,132-H ) :   0.9460 
B(123-O ,133-H ) :   0.9521 B(134-C ,135-C ) :   1.4081 B(134-C ,136-N ) :   0.9311 
B(134-C ,141-C ) :   1.3882 B(135-C ,137-N ) :   0.9472 B(135-C ,142-C ) :   1.3603 
B(136-N ,138-C ) :   1.2243 B(136-N ,143-C ) :   0.8330 B(137-N ,138-C ) :   1.2267 
B(138-C ,150-N ) :   1.4115 B(141-C ,153-C ) :   1.4088 B(141-C ,157-H ) :   1.0130 
B(142-C ,152-C ) :   1.4394 B(142-C ,155-H ) :   1.0103 B(143-C ,145-H ) :   0.9601 
B(143-C ,146-H ) :   0.9808 B(147-O ,149-H ) :   0.9356 B(150-N ,151-H ) :   0.8968 
B(150-N ,158-H ) :   0.8710 B(152-C ,153-C ) :   1.3886 B(152-C ,154-H ) :   0.9979 
B(153-C ,156-H ) :   0.9984 


------------------
HIRSHFELD ANALYSIS
------------------

Total integrated alpha density =    325.999762725
Total integrated beta density  =    325.999762725

  ATOM     CHARGE      SPIN    
   0 H    0.022041    0.000000
   1 C    0.187832    0.000000
   2 C    0.087998    0.000000
   3 C    0.080450    0.000000
   4 C    0.094307    0.000000
   5 C    0.090268    0.000000
   6 C    0.074855    0.000000
   7 O   -0.233986    0.000000
   8 O   -0.279452    0.000000
   9 O   -0.207780    0.000000
  10 O   -0.223623    0.000000
  11 O   -0.273653    0.000000
  12 H    0.036559    0.000000
  13 H    0.024685    0.000000
  14 H    0.013976    0.000000
  15 H    0.024743    0.000000
  16 H    0.017846    0.000000
  17 H    0.014812    0.000000
  18 H    0.021756    0.000000
  19 H    0.175485    0.000000
  20 H    0.135815    0.000000
  21 H    0.170205    0.000000
  22 C    0.186437    0.000000
  23 C    0.088877    0.000000
  24 C    0.080356    0.000000
  25 C    0.093838    0.000000
  26 C    0.092515    0.000000
  27 C    0.075726    0.000000
  28 O   -0.227611    0.000000
  29 O   -0.209033    0.000000
  30 O   -0.224623    0.000000
  31 O   -0.260343    0.000000
  32 H    0.036460    0.000000
  33 H    0.024906    0.000000
  34 H    0.025213    0.000000
  35 H    0.014139    0.000000
  36 H    0.021047    0.000000
  37 H    0.019691    0.000000
  38 H    0.175734    0.000000
  39 H    0.172244    0.000000
  40 C    0.186463    0.000000
  41 C    0.084411    0.000000
  42 C    0.079886    0.000000
  43 C    0.092789    0.000000
  44 C    0.099900    0.000000
  45 C    0.058222    0.000000
  46 O   -0.251887    0.000000
  47 O   -0.275198    0.000000
  48 O   -0.217691    0.000000
  49 O   -0.201945    0.000000
  50 H    0.036426    0.000000
  51 H    0.025452    0.000000
  52 H    0.019318    0.000000
  53 H    0.026145    0.000000
  54 H    0.024042    0.000000
  55 H    0.174344    0.000000
  56 H    0.130897    0.000000
  57 C    0.187403    0.000000
  58 C    0.088489    0.000000
  59 C    0.084693    0.000000
  60 C    0.092678    0.000000
  61 C    0.081162    0.000000
  62 C    0.080164    0.000000
  63 O   -0.260028    0.000000
  64 O   -0.274853    0.000000
  65 O   -0.219355    0.000000
  66 O   -0.220272    0.000000
  67 O   -0.269648    0.000000
  68 H    0.038758    0.000000
  69 H    0.025525    0.000000
  70 H    0.011778    0.000000
  71 H    0.025865    0.000000
  72 H    0.004370    0.000000
  73 H    0.029507    0.000000
  74 H    0.028804    0.000000
  75 H    0.176011    0.000000
  76 H    0.150948    0.000000
  77 H    0.146743    0.000000
  78 C    0.185011    0.000000
  79 C    0.090763    0.000000
  80 C    0.083655    0.000000
  81 C    0.092644    0.000000
  82 C    0.082065    0.000000
  83 C    0.077652    0.000000
  84 O   -0.230521    0.000000
  85 O   -0.267163    0.000000
  86 O   -0.201747    0.000000
  87 O   -0.231954    0.000000
  88 O   -0.244517    0.000000
  89 H    0.037626    0.000000
  90 H    0.025479    0.000000
  91 H    0.017926    0.000000
  92 H    0.028035    0.000000
  93 H    0.008406    0.000000
  94 H    0.024002    0.000000
  95 H    0.035342    0.000000
  96 H    0.178141    0.000000
  97 H    0.160862    0.000000
  98 H    0.178710    0.000000
  99 C    0.183698    0.000000
 100 C    0.085698    0.000000
 101 C    0.079570    0.000000
 102 C    0.089212    0.000000
 103 C    0.097133    0.000000
 104 O   -0.234379    0.000000
 105 O   -0.273951    0.000000
 106 O   -0.216719    0.000000
 107 O   -0.213367    0.000000
 108 H    0.031192    0.000000
 109 H    0.024411    0.000000
 110 H    0.023493    0.000000
 111 H    0.176383    0.000000
 112 H    0.136058    0.000000
 113 C    0.187285    0.000000
 114 C    0.083000    0.000000
 115 C    0.082627    0.000000
 116 C    0.092976    0.000000
 117 C    0.086939    0.000000
 118 C    0.078930    0.000000
 119 O   -0.237493    0.000000
 120 O   -0.280741    0.000000
 121 O   -0.221060    0.000000
 122 O   -0.220518    0.000000
 123 O   -0.261777    0.000000
 124 H    0.037055    0.000000
 125 H    0.020620    0.000000
 126 H    0.017513    0.000000
 127 H    0.023002    0.000000
 128 H    0.013815    0.000000
 129 H    0.030261    0.000000
 130 H    0.021720    0.000000
 131 H    0.173955    0.000000
 132 H    0.132089    0.000000
 133 H    0.137142    0.000000
 134 C    0.046518    0.000000
 135 C    0.046702    0.000000
 136 N   -0.062487    0.000000
 137 N   -0.060976    0.000000
 138 C    0.280191    0.000000
 139 H    0.039744    0.000000
 140 H    0.045536    0.000000
 141 C   -0.019456    0.000000
 142 C   -0.024342    0.000000
 143 C    0.057638    0.000000
 144 H    0.022987    0.000000
 145 H    0.041200    0.000000
 146 H    0.035467    0.000000
 147 O   -0.277209    0.000000
 148 H    0.014605    0.000000
 149 H    0.134185    0.000000
 150 N   -0.148584    0.000000
 151 H    0.119879    0.000000
 152 C   -0.012377    0.000000
 153 C   -0.017687    0.000000
 154 H    0.042124    0.000000
 155 H    0.039025    0.000000
 156 H    0.043413    0.000000
 157 H    0.043488    0.000000
 158 H    0.113679    0.000000

  TOTAL   1.000475    0.000000

-------
TIMINGS
-------

Total SCF time: 0 days 0 hours 2 min 47 sec 

Total time                  ....     167.549 sec
Sum of individual times     ....     161.253 sec  ( 96.2%)

Fock matrix formation       ....     139.931 sec  ( 83.5%)
Diagonalization             ....       0.680 sec  (  0.4%)
Density matrix formation    ....       0.594 sec  (  0.4%)
Population analysis         ....       7.024 sec  (  4.2%)
Initial guess               ....       2.653 sec  (  1.6%)
Orbital Transformation      ....       0.000 sec  (  0.0%)
Orbital Orthonormalization  ....       2.441 sec  (  1.5%)
DIIS solution               ....       0.683 sec  (  0.4%)
SOSCF solution              ....       4.746 sec  (  2.8%)

Maximum memory used throughout the entire SCF-calculation: 376.6 MB

-------------------------   --------------------
FINAL SINGLE POINT ENERGY     -4528.797521064633
-------------------------   --------------------

                                *** OPTIMIZATION RUN DONE ***

                            ***************************************
                            *     ORCA property calculations      *
                            ***************************************

                                    ---------------------
                                    Active property flags
                                    ---------------------
   (+) Dipole Moment


------------------------------------------------------------------------------
                       ORCA ELECTRIC PROPERTIES CALCULATION
------------------------------------------------------------------------------

Dipole Moment Calculation                       ... on
Quadrupole Moment Calculation                   ... off
Polarizability Calculation                      ... off
GBWName                                         ... bBiCyDNH2_opt_orca.gbw
Electron density                                ... bBiCyDNH2_opt_orca.scfp
The origin for moment calculation is the CENTER OF MASS  = (-49.588943, -55.571702 -25.575196)

-------------
DIPOLE MOMENT
-------------
                                X             Y             Z
Electronic contribution:     -0.95785      -3.47631      -2.79212
Nuclear contribution   :     -0.85331       4.85845       1.14865
                        -----------------------------------------
Total Dipole Moment    :     -1.81116       1.38214      -1.64347
                        -----------------------------------------
Magnitude (a.u.)       :      2.80920
Magnitude (Debye)      :      7.14042



--------------------
Rotational spectrum 
--------------------
 
Rotational constants in cm-1:     0.000862     0.000663     0.000493 
Rotational constants in MHz :    25.832464    19.887183    14.779831 

 Dipole components along the rotational axes: 
x,y,z [a.u.] :    -1.032214    -1.078812     2.379559 
x,y,z [Debye]:    -2.623679    -2.742123     6.048359 

 

Timings for individual modules:

Sum of individual times         ...     9540.754 sec (= 159.013 min)
GTO integral calculation        ...      438.327 sec (=   7.305 min)   4.6 %
SCF iterations                  ...     6897.529 sec (= 114.959 min)  72.3 %
SCF Gradient evaluation         ...     2180.632 sec (=  36.344 min)  22.9 %
Geometry relaxation             ...       24.266 sec (=   0.404 min)   0.3 %
                             ****ORCA TERMINATED NORMALLY****
TOTAL RUN TIME: 0 days 2 hours 45 minutes 26 seconds 834 msec
