      -----------------------------------------------------------      
     |                   =====================                   |     
     |                           x T B                           |     
     |                   =====================                   |     
     |                         S. Grimme                         |     
     |          Mulliken Center for Theoretical Chemistry        |     
     |                    University of Bonn                     |     
      -----------------------------------------------------------      

   * xtb version 6.4.1 (bd6e46d) compiled by 'conda@4901f00b25ba' on 2021-06-10

   xtb is free software: you can redistribute it and/or modify it under
   the terms of the GNU Lesser General Public License as published by
   the Free Software Foundation, either version 3 of the License, or
   (at your option) any later version.
   
   xtb is distributed in the hope that it will be useful,
   but WITHOUT ANY WARRANTY; without even the implied warranty of
   MERCHANTABILITY or FITNESS FOR A PARTICULAR PURPOSE.  See the
   GNU Lesser General Public License for more details.
   
   Cite this work as:
   * C. Bannwarth, E. Caldeweyher, S. Ehlert, A. Hansen, P. Pracht,
     J. Seibert, S. Spicher, S. Grimme, WIREs Comput. Mol. Sci., 2020, 11,
     e01493. DOI: 10.1002/wcms.1493
   
   for GFN2-xTB:
   * C. Bannwarth, S. Ehlert and S. Grimme., J. Chem. Theory Comput., 2019,
     15, 1652-1671. DOI: 10.1021/acs.jctc.8b01176
   for GFN1-xTB:
   * S. Grimme, C. Bannwarth, P. Shushkov, J. Chem. Theory Comput., 2017,
     13, 1989-2009. DOI: 10.1021/acs.jctc.7b00118
   for GFN0-xTB:
   * P. Pracht, E. Caldeweyher, S. Ehlert, S. Grimme, ChemRxiv, 2019, preprint.
     DOI: 10.26434/chemrxiv.8326202.v1
   for GFN-FF:
   * S. Spicher and S. Grimme, Angew. Chem. Int. Ed., 2020, 59, 15665-15673.
     DOI: 10.1002/anie.202004239
   
   for DFT-D4:
   * E. Caldeweyher, C. Bannwarth and S. Grimme, J. Chem. Phys., 2017,
     147, 034112. DOI: 10.1063/1.4993215
   * E. Caldeweyher, S. Ehlert, A. Hansen, H. Neugebauer, S. Spicher,
     C. Bannwarth and S. Grimme, J. Chem. Phys., 2019, 150, 154122.
     DOI: 10.1063/1.5090222
   * E. Caldeweyher, J.-M. Mewes, S. Ehlert and S. Grimme, Phys. Chem. Chem. Phys.
     2020, 22, 8499-8512. DOI: 10.1039/D0CP00502A
   
   for sTDA-xTB:
   * S. Grimme and C. Bannwarth, J. Chem. Phys., 2016, 145, 054103.
     DOI: 10.1063/1.4959605
   
   in the mass-spec context:
   * V. Asgeirsson, C. Bauer and S. Grimme, Chem. Sci., 2017, 8, 4879.
     DOI: 10.1039/c7sc00601b
   * J. Koopman and S. Grimme, ACS Omega 2019, 4, 12, 15120-15133.
     DOI: 10.1021/acsomega.9b02011
   
   for metadynamics refer to:
   * S. Grimme, J. Chem. Theory Comput., 2019, 155, 2847-2862
     DOI: 10.1021/acs.jctc.9b00143
   
   for SPH calculations refer to:
   * S. Spicher and S. Grimme, J. Chem. Theory Comput., 2021, 17, 1701-1714
     DOI: 10.1021/acs.jctc.0c01306
   
   with help from (in alphabetical order)
   P. Atkinson, C. Bannwarth, F. Bohle, G. Brandenburg, E. Caldeweyher
   M. Checinski, S. Dohm, S. Ehlert, S. Ehrlich, I. Gerasimov, J. Koopman
   C. Lavigne, S. Lehtola, F. März, M. Müller, F. Musil, H. Neugebauer
   J. Pisarek, C. Plett, P. Pracht, J. Seibert, P. Shushkov, S. Spicher
   M. Stahn, M. Steiner, T. Strunk, J. Stückrath, T. Rose, and J. Unsleber
   
 * started run on 2022/03/02 at 03:00:38.261     

           -------------------------------------------------
          |                Calculation Setup                |
           -------------------------------------------------

          program call               : /jet/home/maihfly/.conda/envs/Cyclodextrins-Env/bin/xtb bBiCyDNH2_opt_xtb.xyz --chrg 1 --uhf 0 --opt
          hostname                   : e001
          coordinate file            : bBiCyDNH2_opt_xtb.xyz
          omp threads                :                    96
          number of atoms            :                   159
          number of electrons        :                   482
          charge                     :                     1
          spin                       :                   0.0
          first test random number   :      0.36760404288041

   ID    Z sym.   atoms
    1    1 H      1, 13-22, 33-40, 51-57, 69-78, 90-99, 109-113, 125-134,
                  140, 141, 145-147, 149, 150, 152, 155-159
    2    6 C      2-7, 23-28, 41-46, 58-63, 79-84, 100-104, 114-119, 135,
                  136, 139, 142-144, 153, 154
    3    8 O      8-12, 29-32, 47-50, 64-68, 85-89, 105-108, 120-124, 148
    4    7 N      137, 138, 151

           -------------------------------------------------
          |                 G F N 2 - x T B                 |
           -------------------------------------------------

        Reference                      10.1021/acs.jctc.8b01176
      * Hamiltonian:
        H0-scaling (s, p, d)           1.850000    2.230000    2.230000
        zeta-weighting                 0.500000
      * Dispersion:
        s8                             2.700000
        a1                             0.520000
        a2                             5.000000
        s9                             5.000000
      * Repulsion:
        kExp                           1.500000    1.000000
        rExp                           1.000000
      * Coulomb:
        alpha                          2.000000
        third order                    shell-resolved
        anisotropic                    true
        a3                             3.000000
        a5                             4.000000
        cn-shift                       1.200000
        cn-exp                         4.000000
        max-rad                        5.000000


          ...................................................
          :                      SETUP                      :
          :.................................................:
          :  # basis functions                 414          :
          :  # atomic orbitals                 414          :
          :  # shells                          244          :
          :  # electrons                       482          :
          :  max. iterations                   250          :
          :  Hamiltonian                  GFN2-xTB          :
          :  restarted?                      false          :
          :  GBSA solvation                  false          :
          :  PC potential                    false          :
          :  electronic temp.          300.0000000     K    :
          :  accuracy                    1.0000000          :
          :  -> integral cutoff          0.2500000E+02      :
          :  -> integral neglect         0.1000000E-07      :
          :  -> SCF convergence          0.1000000E-05 Eh   :
          :  -> wf. convergence          0.1000000E-03 e    :
          :  Broyden damping             0.4000000          :
          ...................................................

 iter      E             dE          RMSdq      gap      omega  full diag
   1   -287.1959638 -0.287196E+03  0.460E+00    2.93       0.0  T
   2   -287.5397716 -0.343808E+00  0.253E+00    3.19       1.0  T
   3   -287.5490650 -0.929338E-02  0.866E-01    2.28       1.0  T
   4   -287.5580587 -0.899368E-02  0.179E-01    2.01       1.0  T
   5   -287.5594934 -0.143476E-02  0.893E-02    2.27       1.0  T
   6   -287.5599265 -0.433100E-03  0.395E-02    2.26       1.0  T
   7   -287.5599873 -0.607899E-04  0.160E-02    2.29       1.0  T
   8   -287.5599962 -0.891366E-05  0.385E-03    2.28       2.1  T
   9   -287.5599966 -0.343214E-06  0.158E-03    2.28       5.0  T
  10   -287.5599967 -0.838037E-07  0.757E-04    2.28      10.5  T
  11   -287.5599967 -0.301661E-07  0.263E-04    2.28      30.2  T

   *** convergence criteria satisfied after 11 iterations ***

         #    Occupation            Energy/Eh            Energy/eV
      -------------------------------------------------------------
         1        2.0000           -0.8416317             -22.9020
       ...           ...                  ...                  ...
       235        2.0000           -0.4920526             -13.3894
       236        2.0000           -0.4890756             -13.3084
       237        2.0000           -0.4872002             -13.2574
       238        2.0000           -0.4847754             -13.1914
       239        2.0000           -0.4835703             -13.1586
       240        2.0000           -0.4771527             -12.9840
       241        2.0000           -0.4681843             -12.7399 (HOMO)
       242                         -0.3842940             -10.4572 (LUMO)
       243                         -0.3396623              -9.2427
       244                         -0.3299645              -8.9788
       245                         -0.2212519              -6.0206
       246                         -0.2118596              -5.7650
       ...                                ...                  ...
       414                          0.5493568              14.9488
      -------------------------------------------------------------
                  HL-Gap            0.0838903 Eh            2.2828 eV
             Fermi-level           -0.4262392 Eh          -11.5986 eV

 SCC (total)                   0 d,  0 h,  0 min,  3.559 sec
 SCC setup                      ...        0 min,  0.012 sec (  0.341%)
 Dispersion                     ...        0 min,  0.033 sec (  0.915%)
 classical contributions        ...        0 min,  0.010 sec (  0.277%)
 integral evaluation            ...        0 min,  0.044 sec (  1.228%)
 iterations                     ...        0 min,  3.063 sec ( 86.075%)
 molecular gradient             ...        0 min,  0.355 sec (  9.969%)
 printout                       ...        0 min,  0.042 sec (  1.183%)

         :::::::::::::::::::::::::::::::::::::::::::::::::::::
         ::                     SUMMARY                     ::
         :::::::::::::::::::::::::::::::::::::::::::::::::::::
         :: total energy            -285.371843806364 Eh    ::
         :: gradient norm              0.180001449055 Eh/a0 ::
         :: HOMO-LUMO gap              2.282771999228 eV    ::
         ::.................................................::
         :: SCC energy              -287.559996694681 Eh    ::
         :: -> isotropic ES            0.780690901989 Eh    ::
         :: -> anisotropic ES         -0.045174007632 Eh    ::
         :: -> anisotropic XC         -0.030071730423 Eh    ::
         :: -> dispersion             -0.202291811826 Eh    ::
         :: repulsion energy           2.177290957347 Eh    ::
         :: add. restraining           0.000000000000 Eh    ::
         :: total charge               1.000000000000 e     ::
         :::::::::::::::::::::::::::::::::::::::::::::::::::::

      ----------------------------------------------------------- 
     |                   =====================                   |
     |                        A N C O P T                        |
     |                   =====================                   |
     |               Approximate Normal Coordinate               |
     |                Rational Function Optimizer                |
      ----------------------------------------------------------- 

          ...................................................
          :                      SETUP                      :
          :.................................................:
          :   optimization level            normal          :
          :   max. optcycles                   477          :
          :   ANC micro-cycles                  20          :
          :   degrees of freedom               471          :
          :.................................................:
          :   RF solver                   davidson          :
          :   write xtbopt.log                true          :
          :   linear?                        false          :
          :   energy convergence         0.5000000E-05 Eh   :
          :   grad. convergence          0.1000000E-02 Eh/α :
          :   maximium RF displ.         1.0000000          :
          :   Hlow (freq-cutoff)         0.1000000E-01      :
          :   Hmax (freq-cutoff)         5.0000000          :
          :   S6 in model hess.         20.0000000          :
          ...................................................

generating ANC from model Hessian ...
Using Lindh-Hessian (1995)
 Shifting diagonal of input Hessian by    9.9426748754797411E-003
 Lowest  eigenvalues of input Hessian
    0.000000    0.000000    0.000000    0.000000    0.000000    0.000000
    0.010000    0.010035    0.010159    0.010233    0.010283    0.010290
    0.010379    0.010576    0.010697    0.010787    0.010907    0.010970
 Highest eigenvalues
    1.740500    1.908171    1.941727    1.987619    2.098767    2.150101


........................................................................
.............................. CYCLE    1 ..............................
........................................................................
   1   -287.5599967 -0.287560E+03  0.104E-04    2.28       0.0  T
   2   -287.5599967 -0.311218E-09  0.623E-05    2.28     127.3  T
   3   -287.5599967 -0.968043E-10  0.398E-05    2.28     199.4  T
     SCC iter.                  ...        0 min,  0.744 sec
     gradient                   ...        0 min,  0.333 sec
 * total energy  :  -285.3718438 Eh     change       -0.4691344E-08 Eh
   gradient norm :     0.1799978 Eh/α   predicted     0.0000000E+00 (-100.00%)
   displ. norm   :     0.4579025 α      lambda       -0.5111210E-01
   maximum displ.:     0.0978161 α      in ANC's #88, #158, #92, ...

........................................................................
.............................. CYCLE    2 ..............................
........................................................................
   1   -287.6619662 -0.287662E+03  0.167E-01    2.51       0.0  T
   2   -287.6623223 -0.356071E-03  0.100E-01    2.49       1.0  T
   3   -287.6622945  0.277589E-04  0.347E-02    2.52       1.0  T
   4   -287.6623575 -0.629514E-04  0.915E-03    2.50       1.0  T
   5   -287.6623676 -0.101405E-04  0.326E-03    2.51       2.4  T
   6   -287.6623678 -0.218216E-06  0.137E-03    2.51       5.8  T
   7   -287.6623679 -0.114875E-06  0.646E-04    2.51      12.3  T
   8   -287.6623680 -0.119480E-07  0.210E-04    2.51      37.8  T
     SCC iter.                  ...        0 min,  2.078 sec
     gradient                   ...        0 min,  0.362 sec
 * total energy  :  -285.4103317 Eh     change       -0.3848792E-01 Eh
   gradient norm :     0.0937229 Eh/α   predicted    -0.3092208E-01 ( -19.66%)
   displ. norm   :     0.5043232 α      lambda       -0.2665774E-01
   maximum displ.:     0.1160296 α      in ANC's #88, #97, #92, ...

........................................................................
.............................. CYCLE    3 ..............................
........................................................................
   1   -287.7312424 -0.287731E+03  0.149E-01    2.66       0.0  T
   2   -287.7315767 -0.334353E-03  0.889E-02    2.66       1.0  T
   3   -287.7315699  0.689264E-05  0.320E-02    2.69       1.0  T
   4   -287.7316057 -0.358449E-04  0.805E-03    2.68       1.0  T
   5   -287.7316129 -0.720516E-05  0.308E-03    2.68       2.6  T
   6   -287.7316133 -0.347111E-06  0.124E-03    2.68       6.4  T
   7   -287.7316134 -0.107861E-06  0.581E-04    2.68      13.7  T
   8   -287.7316134 -0.564830E-08  0.191E-04    2.68      41.5  T
     SCC iter.                  ...        0 min,  2.059 sec
     gradient                   ...        0 min,  0.394 sec
 * total energy  :  -285.4271479 Eh     change       -0.1681613E-01 Eh
   gradient norm :     0.0250870 Eh/α   predicted    -0.1671897E-01 (  -0.58%)
   displ. norm   :     0.4479494 α      lambda       -0.6416074E-02
   maximum displ.:     0.1034444 α      in ANC's #50, #88, #72, ...

........................................................................
.............................. CYCLE    4 ..............................
........................................................................
   1   -287.7443550 -0.287744E+03  0.776E-02    2.69       0.0  T
   2   -287.7443791 -0.240366E-04  0.461E-02    2.70       1.0  T
   3   -287.7443727  0.631666E-05  0.102E-02    2.70       1.0  T
   4   -287.7443831 -0.103560E-04  0.310E-03    2.70       2.6  T
   5   -287.7443840 -0.868134E-06  0.149E-03    2.70       5.3  T
   6   -287.7443841 -0.961872E-07  0.516E-04    2.70      15.4  T
   7   -287.7443841 -0.545919E-08  0.228E-04    2.70      34.8  T
     SCC iter.                  ...        0 min,  1.851 sec
     gradient                   ...        0 min,  0.335 sec
 * total energy  :  -285.4319164 Eh     change       -0.4768509E-02 Eh
   gradient norm :     0.0183766 Eh/α   predicted    -0.3851766E-02 ( -19.22%)
   displ. norm   :     0.5201735 α      lambda       -0.4118812E-02
   maximum displ.:     0.1436597 α      in ANC's #50, #24, #17, ...

........................................................................
.............................. CYCLE    5 ..............................
........................................................................
   1   -287.7496485 -0.287750E+03  0.711E-02    2.71       0.0  T
   2   -287.7496646 -0.160782E-04  0.428E-02    2.71       1.0  T
   3   -287.7496553  0.927958E-05  0.100E-02    2.71       1.0  T
   4   -287.7496692 -0.138880E-04  0.285E-03    2.72       2.8  T
   5   -287.7496697 -0.530017E-06  0.145E-03    2.72       5.5  T
   6   -287.7496698 -0.544188E-07  0.504E-04    2.71      15.7  T
   7   -287.7496698 -0.969277E-08  0.203E-04    2.72      39.0  T
     SCC iter.                  ...        0 min,  1.721 sec
     gradient                   ...        0 min,  0.302 sec
 * total energy  :  -285.4349900 Eh     change       -0.3073593E-02 Eh
   gradient norm :     0.0166815 Eh/α   predicted    -0.2616702E-02 ( -14.87%)
   displ. norm   :     0.5318005 α      lambda       -0.2627604E-02
   maximum displ.:     0.1461135 α      in ANC's #50, #12, #24, ...

........................................................................
.............................. CYCLE    6 ..............................
........................................................................
   1   -287.7541428 -0.287754E+03  0.638E-02    2.73       0.0  T
   2   -287.7541567 -0.139448E-04  0.385E-02    2.74       1.0  T
   3   -287.7541481  0.864760E-05  0.951E-03    2.74       1.0  T
   4   -287.7541609 -0.127758E-04  0.266E-03    2.74       3.0  T
   5   -287.7541613 -0.479513E-06  0.135E-03    2.74       5.9  T
   6   -287.7541614 -0.393254E-07  0.472E-04    2.74      16.8  T
   7   -287.7541614 -0.852197E-08  0.187E-04    2.74      42.5  T
     SCC iter.                  ...        0 min,  1.845 sec
     gradient                   ...        0 min,  0.350 sec
 * total energy  :  -285.4370404 Eh     change       -0.2050416E-02 Eh
   gradient norm :     0.0150911 Eh/α   predicted    -0.1685361E-02 ( -17.80%)
   displ. norm   :     0.5683086 α      lambda       -0.2107300E-02
   maximum displ.:     0.1763876 α      in ANC's #13, #12, #17, ...

........................................................................
.............................. CYCLE    7 ..............................
........................................................................
   1   -287.7589768 -0.287759E+03  0.639E-02    2.77       0.0  T
   2   -287.7589914 -0.145958E-04  0.386E-02    2.77       1.0  T
   3   -287.7589833  0.804488E-05  0.938E-03    2.77       1.0  T
   4   -287.7589953 -0.120142E-04  0.271E-03    2.77       2.9  T
   5   -287.7589959 -0.542221E-06  0.134E-03    2.77       5.9  T
   6   -287.7589959 -0.422119E-07  0.467E-04    2.77      17.0  T
   7   -287.7589959 -0.625653E-08  0.190E-04    2.77      41.8  T
     SCC iter.                  ...        0 min,  2.060 sec
     gradient                   ...        0 min,  0.363 sec
 * total energy  :  -285.4387165 Eh     change       -0.1676092E-02 Eh
   gradient norm :     0.0119291 Eh/α   predicted    -0.1393960E-02 ( -16.83%)
   displ. norm   :     0.5936131 α      lambda       -0.1729788E-02
   maximum displ.:     0.2200186 α      in ANC's #13, #12, #17, ...

........................................................................
.............................. CYCLE    8 ..............................
........................................................................
   1   -287.7623220 -0.287762E+03  0.644E-02    2.80       0.0  T
   2   -287.7623362 -0.141402E-04  0.389E-02    2.80       1.0  T
   3   -287.7623291  0.702180E-05  0.895E-03    2.80       1.0  T
   4   -287.7623397 -0.105541E-04  0.266E-03    2.80       3.0  T
   5   -287.7623403 -0.556038E-06  0.129E-03    2.80       6.1  T
   6   -287.7623403 -0.397492E-07  0.423E-04    2.80      18.7  T
   7   -287.7623403 -0.411899E-08  0.171E-04    2.80      46.5  T
     SCC iter.                  ...        0 min,  1.971 sec
     gradient                   ...        0 min,  0.361 sec
 * total energy  :  -285.4401060 Eh     change       -0.1389515E-02 Eh
   gradient norm :     0.0106291 Eh/α   predicted    -0.1169674E-02 ( -15.82%)
   displ. norm   :     0.6052564 α      lambda       -0.1440669E-02
   maximum displ.:     0.2567734 α      in ANC's #13, #12, #17, ...

........................................................................
.............................. CYCLE    9 ..............................
........................................................................
   1   -287.7643260 -0.287764E+03  0.634E-02    2.83       0.0  T
   2   -287.7643383 -0.123262E-04  0.382E-02    2.83       1.0  T
   3   -287.7643320  0.628577E-05  0.847E-03    2.83       1.0  T
   4   -287.7643413 -0.932903E-05  0.251E-03    2.83       3.2  T
   5   -287.7643418 -0.475340E-06  0.122E-03    2.83       6.5  T
   6   -287.7643419 -0.330557E-07  0.391E-04    2.83      20.3  T
   7   -287.7643419 -0.327719E-08  0.163E-04    2.83      48.8  T
     SCC iter.                  ...        0 min,  1.933 sec
     gradient                   ...        0 min,  0.366 sec
 * total energy  :  -285.4412696 Eh     change       -0.1163647E-02 Eh
   gradient norm :     0.0098585 Eh/α   predicted    -0.9842612E-03 ( -15.42%)
   displ. norm   :     0.6100873 α      lambda       -0.1215138E-02
   maximum displ.:     0.2853990 α      in ANC's #13, #12, #17, ...

........................................................................
.............................. CYCLE   10 ..............................
........................................................................
   1   -287.7645434 -0.287765E+03  0.627E-02    2.85       0.0  T
   2   -287.7645527 -0.930945E-05  0.377E-02    2.85       1.0  T
   3   -287.7645458  0.695642E-05  0.829E-03    2.85       1.0  T
   4   -287.7645555 -0.966818E-05  0.224E-03    2.85       3.5  T
   5   -287.7645558 -0.321189E-06  0.111E-03    2.85       7.2  T
   6   -287.7645558 -0.230360E-07  0.364E-04    2.85      21.8  T
   7   -287.7645558 -0.371045E-08  0.162E-04    2.85      48.9  T
     SCC iter.                  ...        0 min,  1.696 sec
     gradient                   ...        0 min,  0.265 sec
 * total energy  :  -285.4422553 Eh     change       -0.9856471E-03 Eh
   gradient norm :     0.0088190 Eh/α   predicted    -0.8337120E-03 ( -15.41%)
   displ. norm   :     0.5949220 α      lambda       -0.1049843E-02
   maximum displ.:     0.2928545 α      in ANC's #13, #12, #3, ...

........................................................................
.............................. CYCLE   11 ..............................
........................................................................
   1   -287.7663365 -0.287766E+03  0.602E-02    2.87       0.0  T
   2   -287.7663433 -0.679272E-05  0.360E-02    2.87       1.0  T
   3   -287.7663353  0.791464E-05  0.834E-03    2.87       1.0  T
   4   -287.7663458 -0.104366E-04  0.198E-03    2.87       4.0  T
   5   -287.7663460 -0.186573E-06  0.995E-04    2.87       8.0  T
   6   -287.7663460 -0.210015E-07  0.368E-04    2.87      21.5  T
     SCC iter.                  ...        0 min,  1.547 sec
     gradient                   ...        0 min,  0.360 sec
 * total energy  :  -285.4430915 Eh     change       -0.8361846E-03 Eh
   gradient norm :     0.0096474 Eh/α   predicted    -0.7107115E-03 ( -15.01%)
   displ. norm   :     0.6330606 α      lambda       -0.9981865E-03
   maximum displ.:     0.3173581 α      in ANC's #13, #12, #3, ...

........................................................................
.............................. CYCLE   12 ..............................
........................................................................
   1   -287.7619692 -0.287762E+03  0.668E-02    2.90       0.0  T
   2   -287.7619759 -0.673453E-05  0.401E-02    2.90       1.0  T
   3   -287.7619657  0.101972E-04  0.912E-03    2.90       1.0  T
   4   -287.7619788 -0.130587E-04  0.195E-03    2.90       4.1  T
   5   -287.7619789 -0.135913E-06  0.985E-04    2.90       8.0  T
   6   -287.7619789 -0.212591E-07  0.364E-04    2.90      21.8  T
     SCC iter.                  ...        0 min,  1.267 sec
     gradient                   ...        0 min,  0.340 sec
 * total energy  :  -285.4437774 Eh     change       -0.6859090E-03 Eh
   gradient norm :     0.0134805 Eh/α   predicted    -0.6991130E-03 (   1.93%)
   displ. norm   :     0.5514627 α      lambda       -0.1009136E-02
   maximum displ.:     0.2725433 α      in ANC's #13, #3, #1, ...

........................................................................
.............................. CYCLE   13 ..............................
........................................................................
   1   -287.7680901 -0.287768E+03  0.576E-02    2.92       0.0  T
   2   -287.7680965 -0.644364E-05  0.343E-02    2.92       1.0  T
   3   -287.7680880  0.854003E-05  0.851E-03    2.92       1.0  T
   4   -287.7680989 -0.108681E-04  0.186E-03    2.92       4.3  T
   5   -287.7680991 -0.206610E-06  0.942E-04    2.92       8.4  T
   6   -287.7680991 -0.226904E-07  0.384E-04    2.92      20.7  T
     SCC iter.                  ...        0 min,  1.483 sec
     gradient                   ...        0 min,  0.330 sec
 * total energy  :  -285.4444768 Eh     change       -0.6994705E-03 Eh
   gradient norm :     0.0101821 Eh/α   predicted    -0.6580182E-03 (  -5.93%)
   displ. norm   :     0.5792463 α      lambda       -0.8229407E-03
   maximum displ.:     0.2830343 α      in ANC's #13, #3, #1, ...

........................................................................
.............................. CYCLE   14 ..............................
........................................................................
   1   -287.7647760 -0.287765E+03  0.606E-02    2.95       0.0  T
   2   -287.7647844 -0.837902E-05  0.364E-02    2.95       1.0  T
   3   -287.7647769  0.748995E-05  0.866E-03    2.96       1.0  T
   4   -287.7647872 -0.103520E-04  0.218E-03    2.95       3.6  T
   5   -287.7647875 -0.252291E-06  0.111E-03    2.95       7.1  T
   6   -287.7647875 -0.272187E-07  0.470E-04    2.95      16.9  T
   7   -287.7647875 -0.753221E-08  0.182E-04    2.95      43.6  T
     SCC iter.                  ...        0 min,  1.956 sec
     gradient                   ...        0 min,  0.359 sec
 * total energy  :  -285.4450124 Eh     change       -0.5355215E-03 Eh
   gradient norm :     0.0169263 Eh/α   predicted    -0.5495366E-03 (   2.62%)
   displ. norm   :     0.5281850 α      lambda       -0.1079010E-02
   maximum displ.:     0.2403904 α      in ANC's #13, #3, #1, ...

........................................................................
.............................. CYCLE   15 ..............................
........................................................................
   1   -287.7700492 -0.287770E+03  0.568E-02    2.99       0.0  T
   2   -287.7700590 -0.977854E-05  0.339E-02    2.98       1.0  T
   3   -287.7700527  0.622715E-05  0.824E-03    2.99       1.0  T
   4   -287.7700612 -0.843406E-05  0.199E-03    2.98       4.0  T
   5   -287.7700615 -0.315920E-06  0.957E-04    2.98       8.3  T
   6   -287.7700615 -0.296760E-07  0.414E-04    2.98      19.2  T
     SCC iter.                  ...        0 min,  1.796 sec
     gradient                   ...        0 min,  0.325 sec
 * total energy  :  -285.4457078 Eh     change       -0.6954281E-03 Eh
   gradient norm :     0.0119792 Eh/α   predicted    -0.6900359E-03 (  -0.78%)
   displ. norm   :     0.5322049 α      lambda       -0.8835196E-03
   maximum displ.:     0.2181149 α      in ANC's #13, #3, #1, ...

........................................................................
.............................. CYCLE   16 ..............................
........................................................................
   1   -287.7719441 -0.287772E+03  0.537E-02    3.02       0.0  T
   2   -287.7719529 -0.877174E-05  0.320E-02    3.01       1.0  T
   3   -287.7719510  0.194266E-05  0.633E-03    3.02       1.3  T
   4   -287.7719551 -0.414582E-05  0.193E-03    3.02       4.1  T
   5   -287.7719553 -0.143220E-06  0.101E-03    3.02       7.9  T
   6   -287.7719553 -0.273692E-07  0.435E-04    3.02      18.2  T
   7   -287.7719553 -0.847393E-08  0.181E-04    3.02      43.8  T
     SCC iter.                  ...        0 min,  1.754 sec
     gradient                   ...        0 min,  0.356 sec
 * total energy  :  -285.4461682 Eh     change       -0.4603962E-03 Eh
   gradient norm :     0.0171616 Eh/α   predicted    -0.5668994E-03 (  23.13%)
   displ. norm   :     0.4931350 α      lambda       -0.9027413E-03
   maximum displ.:     0.2020632 α      in ANC's #13, #3, #1, ...

........................................................................
.............................. CYCLE   17 ..............................
........................................................................
   1   -287.7677662 -0.287768E+03  0.518E-02    3.05       0.0  T
   2   -287.7677724 -0.617064E-05  0.311E-02    3.05       1.0  T
   3   -287.7677707  0.169486E-05  0.538E-03    3.05       1.5  T
   4   -287.7677740 -0.325351E-05  0.162E-03    3.05       4.9  T
   5   -287.7677741 -0.988698E-07  0.794E-04    3.05      10.0  T
   6   -287.7677741 -0.231729E-07  0.333E-04    3.05      23.8  T
     SCC iter.                  ...        0 min,  1.357 sec
     gradient                   ...        0 min,  0.355 sec
 * total energy  :  -285.4466133 Eh     change       -0.4450962E-03 Eh
   gradient norm :     0.0161836 Eh/α   predicted    -0.5611388E-03 (  26.07%)
   displ. norm   :     0.4181223 α      lambda       -0.8835021E-03
   maximum displ.:     0.1716929 α      in ANC's #1, #3, #13, ...

........................................................................
.............................. CYCLE   18 ..............................
........................................................................
   1   -287.7663946 -0.287766E+03  0.419E-02    3.06       0.0  T
   2   -287.7664001 -0.555682E-05  0.253E-02    3.06       1.0  T
   3   -287.7663985  0.161200E-05  0.517E-03    3.07       1.5  T
   4   -287.7664017 -0.313622E-05  0.172E-03    3.06       4.6  T
   5   -287.7664018 -0.156581E-06  0.896E-04    3.06       8.9  T
   6   -287.7664019 -0.309714E-07  0.404E-04    3.06      19.7  T
     SCC iter.                  ...        0 min,  1.478 sec
     gradient                   ...        0 min,  0.392 sec
 * total energy  :  -285.4471159 Eh     change       -0.5026093E-03 Eh
   gradient norm :     0.0125429 Eh/α   predicted    -0.5189824E-03 (   3.26%)
   displ. norm   :     0.4156753 α      lambda       -0.7311235E-03
   maximum displ.:     0.1837524 α      in ANC's #1, #3, #2, ...

........................................................................
.............................. CYCLE   19 ..............................
........................................................................
   1   -287.7718326 -0.287772E+03  0.373E-02    3.08       0.0  T
   2   -287.7718369 -0.423700E-05  0.223E-02    3.08       1.0  T
   3   -287.7718362  0.636184E-06  0.404E-03    3.08       2.0  T
   4   -287.7718379 -0.170317E-05  0.145E-03    3.08       5.5  T
   5   -287.7718380 -0.107145E-06  0.777E-04    3.08      10.2  T
   6   -287.7718381 -0.265749E-07  0.312E-04    3.08      25.5  T
     SCC iter.                  ...        0 min,  1.420 sec
     gradient                   ...        0 min,  0.333 sec
 * total energy  :  -285.4474565 Eh     change       -0.3406411E-03 Eh
   gradient norm :     0.0173805 Eh/α   predicted    -0.4287382E-03 (  25.86%)
   displ. norm   :     0.4788225 α      lambda       -0.7754074E-03
   maximum displ.:     0.2151802 α      in ANC's #1, #3, #2, ...

........................................................................
.............................. CYCLE   20 ..............................
........................................................................
   1   -287.7724297 -0.287772E+03  0.389E-02    3.09       0.0  T
   2   -287.7724344 -0.466353E-05  0.233E-02    3.09       1.0  T
   3   -287.7724338  0.587398E-06  0.421E-03    3.09       1.9  T
   4   -287.7724354 -0.166125E-05  0.137E-03    3.09       5.8  T
   5   -287.7724355 -0.824982E-07  0.754E-04    3.09      10.5  T
   6   -287.7724355 -0.171695E-07  0.302E-04    3.09      26.2  T
     SCC iter.                  ...        0 min,  1.580 sec
     gradient                   ...        0 min,  0.358 sec
 * total energy  :  -285.4479926 Eh     change       -0.5360666E-03 Eh
   gradient norm :     0.0106438 Eh/α   predicted    -0.4765975E-03 ( -11.09%)
   displ. norm   :     0.6249589 α      lambda       -0.7032792E-03
   maximum displ.:     0.2721068 α      in ANC's #1, #3, #13, ...
 * RMSD in coord.:     0.6408086 α      energy gain  -0.7614879E-01 Eh

generating ANC from model Hessian ...
Using Lindh-Hessian (1995)
 Shifting diagonal of input Hessian by    9.9390258995985456E-003
 Lowest  eigenvalues of input Hessian
    0.000000    0.000000    0.000000    0.000000    0.000000    0.000000
    0.010000    0.010037    0.010168    0.010232    0.010261    0.010326
    0.010410    0.010644    0.010707    0.010839    0.011046    0.011085
 Highest eigenvalues
    1.868830    1.972878    2.106031    2.179843    2.275338    2.363284


........................................................................
.............................. CYCLE   21 ..............................
........................................................................
   1   -287.7653484 -0.287765E+03  0.537E-02    3.11       0.0  T
   2   -287.7653558 -0.745869E-05  0.322E-02    3.11       1.0  T
   3   -287.7653538  0.200368E-05  0.580E-03    3.12       1.4  T
   4   -287.7653575 -0.371063E-05  0.178E-03    3.11       4.5  T
   5   -287.7653577 -0.178129E-06  0.910E-04    3.11       8.7  T
   6   -287.7653577 -0.243701E-07  0.393E-04    3.11      20.2  T
     SCC iter.                  ...        0 min,  1.376 sec
     gradient                   ...        0 min,  0.341 sec
 * total energy  :  -285.4484493 Eh     change       -0.4567300E-03 Eh
   gradient norm :     0.0132957 Eh/α   predicted     0.0000000E+00 (-100.00%)
   displ. norm   :     0.1147615 α      lambda       -0.4206657E-03
   maximum displ.:     0.0455877 α      in ANC's #2, #1, #3, ...

........................................................................
.............................. CYCLE   22 ..............................
........................................................................
   1   -287.7708311 -0.287771E+03  0.149E-02    3.12       0.0  T
   2   -287.7708320 -0.967430E-06  0.890E-03    3.11       1.0  T
   3   -287.7708317  0.314570E-06  0.217E-03    3.11       3.6  T
   4   -287.7708323 -0.529327E-06  0.730E-04    3.11      10.9  T
   5   -287.7708323 -0.387632E-07  0.354E-04    3.11      22.4  T
     SCC iter.                  ...        0 min,  1.354 sec
     gradient                   ...        0 min,  0.348 sec
 * total energy  :  -285.4487762 Eh     change       -0.3268451E-03 Eh
   gradient norm :     0.0048584 Eh/α   predicted    -0.2131041E-03 ( -34.80%)
   displ. norm   :     0.2676798 α      lambda       -0.4877098E-03
   maximum displ.:     0.1092862 α      in ANC's #2, #1, #3, ...

........................................................................
.............................. CYCLE   23 ..............................
........................................................................
   1   -287.7761333 -0.287776E+03  0.282E-02    3.11       0.0  T
   2   -287.7761360 -0.266000E-05  0.169E-02    3.11       1.0  T
   3   -287.7761338  0.214580E-05  0.461E-03    3.11       1.7  T
   4   -287.7761368 -0.295008E-05  0.125E-03    3.11       6.3  T
   5   -287.7761369 -0.103216E-06  0.599E-04    3.11      13.2  T
   6   -287.7761369 -0.964587E-08  0.251E-04    3.11      31.6  T
     SCC iter.                  ...        0 min,  1.455 sec
     gradient                   ...        0 min,  0.347 sec
 * total energy  :  -285.4491294 Eh     change       -0.3532440E-03 Eh
   gradient norm :     0.0069803 Eh/α   predicted    -0.2613340E-03 ( -26.02%)
   displ. norm   :     0.3576083 α      lambda       -0.4117492E-03
   maximum displ.:     0.1476551 α      in ANC's #2, #1, #3, ...

........................................................................
.............................. CYCLE   24 ..............................
........................................................................
   1   -287.7774783 -0.287777E+03  0.353E-02    3.11       0.0  T
   2   -287.7774813 -0.308553E-05  0.211E-02    3.11       1.0  T
   3   -287.7774771  0.423562E-05  0.589E-03    3.11       1.3  T
   4   -287.7774826 -0.546252E-05  0.133E-03    3.11       6.0  T
   5   -287.7774827 -0.920147E-07  0.661E-04    3.11      12.0  T
   6   -287.7774827 -0.971073E-08  0.266E-04    3.11      29.9  T
     SCC iter.                  ...        0 min,  1.313 sec
     gradient                   ...        0 min,  0.373 sec
 * total energy  :  -285.4494754 Eh     change       -0.3459547E-03 Eh
   gradient norm :     0.0117940 Eh/α   predicted    -0.2322226E-03 ( -32.87%)
   displ. norm   :     0.5887363 α      lambda       -0.6532635E-03
   maximum displ.:     0.2415033 α      in ANC's #2, #1, #3, ...

........................................................................
.............................. CYCLE   25 ..............................
........................................................................
   1   -287.7747482 -0.287775E+03  0.572E-02    3.10       0.0  T
   2   -287.7747549 -0.672434E-05  0.343E-02    3.10       1.0  T
   3   -287.7747435  0.114733E-04  0.935E-03    3.10       1.0  T
   4   -287.7747580 -0.145616E-04  0.198E-03    3.10       4.0  T
   5   -287.7747582 -0.165395E-06  0.101E-03    3.10       7.8  T
   6   -287.7747582 -0.219235E-07  0.396E-04    3.10      20.0  T
   7   -287.7747582 -0.444982E-08  0.150E-04    3.10      52.8  T
     SCC iter.                  ...        0 min,  1.669 sec
     gradient                   ...        0 min,  0.362 sec
 * total energy  :  -285.4500263 Eh     change       -0.5508873E-03 Eh
   gradient norm :     0.0133258 Eh/α   predicted    -0.4398476E-03 ( -20.16%)
   displ. norm   :     0.6359688 α      lambda       -0.7327780E-03
   maximum displ.:     0.2656673 α      in ANC's #2, #1, #3, ...

........................................................................
.............................. CYCLE   26 ..............................
........................................................................
   1   -287.7697526 -0.287770E+03  0.604E-02    3.10       0.0  T
   2   -287.7697596 -0.697462E-05  0.363E-02    3.10       1.0  T
   3   -287.7697480  0.115584E-04  0.930E-03    3.09       1.0  T
   4   -287.7697628 -0.147550E-04  0.206E-03    3.10       3.8  T
   5   -287.7697630 -0.181428E-06  0.106E-03    3.10       7.5  T
   6   -287.7697630 -0.262797E-07  0.420E-04    3.10      18.9  T
   7   -287.7697630 -0.391310E-08  0.169E-04    3.10      47.0  T
     SCC iter.                  ...        0 min,  2.029 sec
     gradient                   ...        0 min,  0.363 sec
 * total energy  :  -285.4506038 Eh     change       -0.5775404E-03 Eh
   gradient norm :     0.0111404 Eh/α   predicted    -0.5145786E-03 ( -10.90%)
   displ. norm   :     0.5178436 α      lambda       -0.6552593E-03
   maximum displ.:     0.2242779 α      in ANC's #2, #1, #3, ...

........................................................................
.............................. CYCLE   27 ..............................
........................................................................
   1   -287.7680884 -0.287768E+03  0.467E-02    3.09       0.0  T
   2   -287.7680929 -0.448889E-05  0.279E-02    3.09       1.0  T
   3   -287.7680888  0.409789E-05  0.591E-03    3.09       1.3  T
   4   -287.7680944 -0.561865E-05  0.172E-03    3.09       4.6  T
   5   -287.7680946 -0.179742E-06  0.840E-04    3.09       9.4  T
   6   -287.7680946 -0.203310E-07  0.357E-04    3.09      22.2  T
     SCC iter.                  ...        0 min,  1.437 sec
     gradient                   ...        0 min,  0.337 sec
 * total energy  :  -285.4511172 Eh     change       -0.5134399E-03 Eh
   gradient norm :     0.0102427 Eh/α   predicted    -0.4154878E-03 ( -19.08%)
   displ. norm   :     0.5617360 α      lambda       -0.6820618E-03
   maximum displ.:     0.2398436 α      in ANC's #2, #1, #12, ...

........................................................................
.............................. CYCLE   28 ..............................
........................................................................
   1   -287.7683063 -0.287768E+03  0.480E-02    3.09       0.0  T
   2   -287.7683108 -0.440664E-05  0.286E-02    3.09       1.0  T
   3   -287.7683088  0.194072E-05  0.474E-03    3.09       1.7  T
   4   -287.7683119 -0.304562E-05  0.165E-03    3.09       4.8  T
   5   -287.7683121 -0.195757E-06  0.833E-04    3.09       9.5  T
   6   -287.7683121 -0.274742E-07  0.327E-04    3.09      24.2  T
     SCC iter.                  ...        0 min,  1.625 sec
     gradient                   ...        0 min,  0.326 sec
 * total energy  :  -285.4516978 Eh     change       -0.5805904E-03 Eh
   gradient norm :     0.0109145 Eh/α   predicted    -0.4486559E-03 ( -22.72%)
   displ. norm   :     0.6301389 α      lambda       -0.8401216E-03
   maximum displ.:     0.2565767 α      in ANC's #2, #12, #1, ...

........................................................................
.............................. CYCLE   29 ..............................
........................................................................
   1   -287.7720024 -0.287772E+03  0.533E-02    3.10       0.0  T
   2   -287.7720082 -0.584014E-05  0.317E-02    3.10       1.0  T
   3   -287.7720073  0.940773E-06  0.463E-03    3.10       1.7  T
   4   -287.7720096 -0.231611E-05  0.165E-03    3.10       4.8  T
   5   -287.7720097 -0.113791E-06  0.911E-04    3.10       8.7  T
   6   -287.7720097 -0.467889E-07  0.357E-04    3.10      22.2  T
     SCC iter.                  ...        0 min,  1.455 sec
     gradient                   ...        0 min,  0.349 sec
 * total energy  :  -285.4523924 Eh     change       -0.6946055E-03 Eh
   gradient norm :     0.0108623 Eh/α   predicted    -0.5868847E-03 ( -15.51%)
   displ. norm   :     0.7393746 α      lambda       -0.8482506E-03
   maximum displ.:     0.2981440 α      in ANC's #2, #12, #1, ...

........................................................................
.............................. CYCLE   30 ..............................
........................................................................
   1   -287.7702972 -0.287770E+03  0.617E-02    3.10       0.0  T
   2   -287.7703050 -0.785136E-05  0.367E-02    3.10       1.0  T
   3   -287.7703036  0.144761E-05  0.538E-03    3.11       1.5  T
   4   -287.7703068 -0.328842E-05  0.213E-03    3.11       3.7  T
   5   -287.7703071 -0.278528E-06  0.105E-03    3.11       7.6  T
   6   -287.7703072 -0.596248E-07  0.451E-04    3.11      17.6  T
   7   -287.7703072 -0.427934E-08  0.173E-04    3.11      45.7  T
     SCC iter.                  ...        0 min,  1.876 sec
     gradient                   ...        0 min,  0.362 sec
 * total energy  :  -285.4530482 Eh     change       -0.6557868E-03 Eh
   gradient norm :     0.0101592 Eh/α   predicted    -0.6559890E-03 (   0.03%)
   displ. norm   :     0.5990285 α      lambda       -0.1041539E-02
   maximum displ.:     0.2296000 α      in ANC's #12, #1, #2, ...

........................................................................
.............................. CYCLE   31 ..............................
........................................................................
   1   -287.7811069 -0.287781E+03  0.595E-02    3.13       0.0  T
   2   -287.7811161 -0.921848E-05  0.357E-02    3.13       1.0  T
   3   -287.7811120  0.408981E-05  0.724E-03    3.13       1.1  T
   4   -287.7811183 -0.626399E-05  0.195E-03    3.13       4.1  T
   5   -287.7811185 -0.195410E-06  0.103E-03    3.13       7.7  T
   6   -287.7811185 -0.352176E-07  0.390E-04    3.13      20.3  T
   7   -287.7811185 -0.456538E-08  0.163E-04    3.13      48.6  T
     SCC iter.                  ...        0 min,  1.673 sec
     gradient                   ...        0 min,  0.354 sec
 * total energy  :  -285.4535816 Eh     change       -0.5334177E-03 Eh
   gradient norm :     0.0145860 Eh/α   predicted    -0.7076427E-03 (  32.66%)
   displ. norm   :     0.5517082 α      lambda       -0.6810559E-03
   maximum displ.:     0.2280522 α      in ANC's #2, #1, #12, ...

........................................................................
.............................. CYCLE   32 ..............................
........................................................................
   1   -287.7756913 -0.287776E+03  0.449E-02    3.13       0.0  T
   2   -287.7756985 -0.714069E-05  0.267E-02    3.13       1.0  T
   3   -287.7756970  0.143309E-05  0.481E-03    3.13       1.6  T
   4   -287.7756994 -0.237767E-05  0.188E-03    3.14       4.2  T
   5   -287.7756998 -0.360709E-06  0.717E-04    3.14      11.1  T
   6   -287.7756998 -0.404253E-07  0.339E-04    3.14      23.4  T
     SCC iter.                  ...        0 min,  1.406 sec
     gradient                   ...        0 min,  0.349 sec
 * total energy  :  -285.4541021 Eh     change       -0.5204990E-03 Eh
   gradient norm :     0.0107117 Eh/α   predicted    -0.4442122E-03 ( -14.66%)
   displ. norm   :     0.4404703 α      lambda       -0.9005361E-03
   maximum displ.:     0.1424059 α      in ANC's #2, #1, #13, ...

........................................................................
.............................. CYCLE   33 ..............................
........................................................................
   1   -287.7744441 -0.287774E+03  0.428E-02    3.15       0.0  T
   2   -287.7744521 -0.797739E-05  0.255E-02    3.15       1.0  T
   3   -287.7744514  0.648926E-06  0.452E-03    3.15       1.8  T
   4   -287.7744531 -0.163924E-05  0.139E-03    3.15       5.7  T
   5   -287.7744532 -0.111930E-06  0.714E-04    3.15      11.1  T
   6   -287.7744532 -0.243139E-07  0.338E-04    3.15      23.5  T
     SCC iter.                  ...        0 min,  1.690 sec
     gradient                   ...        0 min,  0.363 sec
 * total energy  :  -285.4546847 Eh     change       -0.5825996E-03 Eh
   gradient norm :     0.0131184 Eh/α   predicted    -0.5376288E-03 (  -7.72%)
   displ. norm   :     0.5469314 α      lambda       -0.7932443E-03
   maximum displ.:     0.1731948 α      in ANC's #1, #2, #12, ...

........................................................................
.............................. CYCLE   34 ..............................
........................................................................
   1   -287.7719865 -0.287772E+03  0.508E-02    3.15       0.0  T
   2   -287.7719934 -0.695729E-05  0.304E-02    3.16       1.0  T
   3   -287.7719918  0.162871E-05  0.539E-03    3.16       1.5  T
   4   -287.7719949 -0.307126E-05  0.169E-03    3.16       4.7  T
   5   -287.7719950 -0.138305E-06  0.838E-04    3.16       9.5  T
   6   -287.7719951 -0.319554E-07  0.380E-04    3.16      20.9  T
     SCC iter.                  ...        0 min,  1.588 sec
     gradient                   ...        0 min,  0.367 sec
 * total energy  :  -285.4552861 Eh     change       -0.6013309E-03 Eh
   gradient norm :     0.0106596 Eh/α   predicted    -0.5152675E-03 ( -14.31%)
   displ. norm   :     0.5540375 α      lambda       -0.7860053E-03
   maximum displ.:     0.1722290 α      in ANC's #13, #4, #1, ...

........................................................................
.............................. CYCLE   35 ..............................
........................................................................
   1   -287.7717790 -0.287772E+03  0.526E-02    3.16       0.0  T
   2   -287.7717853 -0.631965E-05  0.313E-02    3.17       1.0  T
   3   -287.7717835  0.182154E-05  0.547E-03    3.16       1.5  T
   4   -287.7717866 -0.317597E-05  0.158E-03    3.17       5.0  T
   5   -287.7717867 -0.993769E-07  0.756E-04    3.17      10.5  T
   6   -287.7717868 -0.171519E-07  0.353E-04    3.17      22.4  T
     SCC iter.                  ...        0 min,  1.570 sec
     gradient                   ...        0 min,  0.338 sec
 * total energy  :  -285.4558880 Eh     change       -0.6019745E-03 Eh
   gradient norm :     0.0096035 Eh/α   predicted    -0.5136406E-03 ( -14.67%)
   displ. norm   :     0.5547939 α      lambda       -0.6697448E-03
   maximum displ.:     0.1845966 α      in ANC's #1, #4, #12, ...

........................................................................
.............................. CYCLE   36 ..............................
........................................................................
   1   -287.7725350 -0.287773E+03  0.501E-02    3.17       0.0  T
   2   -287.7725404 -0.537252E-05  0.299E-02    3.18       1.0  T
   3   -287.7725390  0.137906E-05  0.481E-03    3.18       1.6  T
   4   -287.7725414 -0.238829E-05  0.148E-03    3.18       5.4  T
   5   -287.7725415 -0.110842E-06  0.724E-04    3.18      11.0  T
   6   -287.7725415 -0.151654E-07  0.283E-04    3.18      28.0  T
     SCC iter.                  ...        0 min,  1.494 sec
     gradient                   ...        0 min,  0.338 sec
 * total energy  :  -285.4564162 Eh     change       -0.5282037E-03 Eh
   gradient norm :     0.0089236 Eh/α   predicted    -0.4379483E-03 ( -17.09%)
   displ. norm   :     0.4989176 α      lambda       -0.5807126E-03
   maximum displ.:     0.1821781 α      in ANC's #1, #4, #3, ...

........................................................................
.............................. CYCLE   37 ..............................
........................................................................
   1   -287.7748892 -0.287775E+03  0.432E-02    3.18       0.0  T
   2   -287.7748935 -0.427409E-05  0.258E-02    3.18       1.0  T
   3   -287.7748925  0.936136E-06  0.407E-03    3.18       1.9  T
   4   -287.7748943 -0.181529E-05  0.138E-03    3.18       5.8  T
   5   -287.7748944 -0.107256E-06  0.709E-04    3.18      11.2  T
   6   -287.7748945 -0.215493E-07  0.276E-04    3.18      28.7  T
     SCC iter.                  ...        0 min,  1.330 sec
     gradient                   ...        0 min,  0.350 sec
 * total energy  :  -285.4568380 Eh     change       -0.4217379E-03 Eh
   gradient norm :     0.0070669 Eh/α   predicted    -0.3626351E-03 ( -14.01%)
   displ. norm   :     0.4745048 α      lambda       -0.3580447E-03
   maximum displ.:     0.1917672 α      in ANC's #1, #2, #3, ...

........................................................................
.............................. CYCLE   38 ..............................
........................................................................
   1   -287.7743013 -0.287774E+03  0.387E-02    3.19       0.0  T
   2   -287.7743047 -0.341784E-05  0.231E-02    3.19       1.0  T
   3   -287.7743035  0.117789E-05  0.381E-03    3.19       2.1  T
   4   -287.7743054 -0.186791E-05  0.122E-03    3.19       6.5  T
   5   -287.7743055 -0.103701E-06  0.604E-04    3.19      13.1  T
   6   -287.7743055 -0.200062E-07  0.271E-04    3.19      29.3  T
     SCC iter.                  ...        0 min,  1.790 sec
     gradient                   ...        0 min,  0.370 sec
 * total energy  :  -285.4570907 Eh     change       -0.2526907E-03 Eh
   gradient norm :     0.0081478 Eh/α   predicted    -0.2193338E-03 ( -13.20%)
   displ. norm   :     0.3750498 α      lambda       -0.3305404E-03
   maximum displ.:     0.1446967 α      in ANC's #1, #8, #3, ...

........................................................................
.............................. CYCLE   39 ..............................
........................................................................
   1   -287.7788045 -0.287779E+03  0.307E-02    3.20       0.0  T
   2   -287.7788083 -0.376522E-05  0.185E-02    3.20       1.0  T
   3   -287.7788066  0.163126E-05  0.437E-03    3.20       1.8  T
   4   -287.7788091 -0.246711E-05  0.117E-03    3.20       6.8  T
   5   -287.7788092 -0.848694E-07  0.605E-04    3.20      13.1  T
   6   -287.7788092 -0.118707E-07  0.279E-04    3.20      28.4  T
     SCC iter.                  ...        0 min,  1.681 sec
     gradient                   ...        0 min,  0.337 sec
 * total energy  :  -285.4572827 Eh     change       -0.1920234E-03 Eh
   gradient norm :     0.0072953 Eh/α   predicted    -0.1885222E-03 (  -1.82%)
   displ. norm   :     0.4927358 α      lambda       -0.3278388E-03
   maximum displ.:     0.2126087 α      in ANC's #1, #2, #3, ...

........................................................................
.............................. CYCLE   40 ..............................
........................................................................
   1   -287.7754136 -0.287775E+03  0.389E-02    3.19       0.0  T
   2   -287.7754196 -0.603446E-05  0.233E-02    3.20       1.0  T
   3   -287.7754160  0.359601E-05  0.614E-03    3.20       1.3  T
   4   -287.7754210 -0.500435E-05  0.121E-03    3.20       6.5  T
   5   -287.7754211 -0.801211E-07  0.630E-04    3.20      12.6  T
   6   -287.7754211 -0.157915E-07  0.302E-04    3.20      26.3  T
     SCC iter.                  ...        0 min,  1.892 sec
     gradient                   ...        0 min,  0.350 sec
 * total energy  :  -285.4574622 Eh     change       -0.1795257E-03 Eh
   gradient norm :     0.0086583 Eh/α   predicted    -0.2037201E-03 (  13.48%)
   displ. norm   :     0.3675712 α      lambda       -0.3804537E-03
   maximum displ.:     0.1497226 α      in ANC's #8, #1, #3, ...

........................................................................
.............................. CYCLE   41 ..............................
........................................................................
   1   -287.7775073 -0.287778E+03  0.305E-02    3.22       0.0  T
   2   -287.7775111 -0.386906E-05  0.184E-02    3.21       1.0  T
   3   -287.7775091  0.201093E-05  0.487E-03    3.21       1.6  T
   4   -287.7775121 -0.294963E-05  0.130E-03    3.22       6.1  T
   5   -287.7775122 -0.133252E-06  0.646E-04    3.21      12.3  T
   6   -287.7775122 -0.938809E-08  0.243E-04    3.22      32.7  T
     SCC iter.                  ...        0 min,  1.563 sec
     gradient                   ...        0 min,  0.367 sec
 * total energy  :  -285.4576556 Eh     change       -0.1933689E-03 Eh
   gradient norm :     0.0112783 Eh/α   predicted    -0.2159315E-03 (  11.67%)
   displ. norm   :     0.3055471 α      lambda       -0.2713986E-03
   maximum displ.:     0.1312867 α      in ANC's #1, #8, #2, ...

........................................................................
.............................. CYCLE   42 ..............................
........................................................................
   1   -287.7762999 -0.287776E+03  0.242E-02    3.23       0.0  T
   2   -287.7763024 -0.240913E-05  0.145E-02    3.23       1.0  T
   3   -287.7763004  0.190851E-05  0.460E-03    3.23       1.7  T
   4   -287.7763031 -0.263617E-05  0.914E-04    3.23       8.7  T
   5   -287.7763031 -0.623316E-07  0.461E-04    3.23      17.2  T
   6   -287.7763032 -0.312065E-08  0.169E-04    3.23      46.9  T
     SCC iter.                  ...        0 min,  1.490 sec
     gradient                   ...        0 min,  0.340 sec
 * total energy  :  -285.4578335 Eh     change       -0.1778789E-03 Eh
   gradient norm :     0.0071744 Eh/α   predicted    -0.1483727E-03 ( -16.59%)
   displ. norm   :     0.3470846 α      lambda       -0.2872542E-03
   maximum displ.:     0.1548378 α      in ANC's #8, #1, #2, ...
 * RMSD in coord.:     0.7021728 α      energy gain  -0.9840875E-02 Eh

generating ANC from model Hessian ...
Using Lindh-Hessian (1995)
 Shifting diagonal of input Hessian by    9.9280335711769037E-003
 Lowest  eigenvalues of input Hessian
    0.000000    0.000000    0.000000    0.000000    0.000000    0.000000
    0.010000    0.010039    0.010249    0.010318    0.010380    0.010394
    0.010499    0.010809    0.010903    0.011047    0.011105    0.011378
 Highest eigenvalues
    1.868333    1.972526    2.099865    2.177650    2.273346    2.356024


........................................................................
.............................. CYCLE   43 ..............................
........................................................................
   1   -287.7805244 -0.287781E+03  0.295E-02    3.24       0.0  T
   2   -287.7805290 -0.455734E-05  0.178E-02    3.24       1.0  T
   3   -287.7805262  0.282947E-05  0.582E-03    3.25       1.4  T
   4   -287.7805302 -0.399974E-05  0.123E-03    3.25       6.4  T
   5   -287.7805303 -0.133616E-06  0.592E-04    3.25      13.4  T
   6   -287.7805303 -0.736100E-08  0.229E-04    3.25      34.6  T
     SCC iter.                  ...        0 min,  1.392 sec
     gradient                   ...        0 min,  0.352 sec
 * total energy  :  -285.4579612 Eh     change       -0.1277228E-03 Eh
   gradient norm :     0.0085177 Eh/α   predicted     0.0000000E+00 (-100.00%)
   displ. norm   :     0.0564925 α      lambda       -0.1310311E-03
   maximum displ.:     0.0161033 α      in ANC's #1, #12, #9, ...

........................................................................
.............................. CYCLE   44 ..............................
........................................................................
   1   -287.7790639 -0.287779E+03  0.824E-03    3.24       0.0  T
   2   -287.7790649 -0.923311E-06  0.513E-03    3.24       1.5  T
   3   -287.7790648  0.926838E-07  0.200E-03    3.24       4.0  T
   4   -287.7790650 -0.261561E-06  0.394E-04    3.24      20.1  T
   5   -287.7790650 -0.103815E-07  0.192E-04    3.24      41.2  T
     SCC iter.                  ...        0 min,  1.115 sec
     gradient                   ...        0 min,  0.367 sec
 * total energy  :  -285.4580653 Eh     change       -0.1040982E-03 Eh
   gradient norm :     0.0031891 Eh/α   predicted    -0.6926213E-04 ( -33.46%)
   displ. norm   :     0.1129715 α      lambda       -0.1118493E-03
   maximum displ.:     0.0374169 α      in ANC's #1, #12, #9, ...

........................................................................
.............................. CYCLE   45 ..............................
........................................................................
   1   -287.7777213 -0.287778E+03  0.131E-02    3.24       0.0  T
   2   -287.7777222 -0.876322E-06  0.795E-03    3.24       1.0  T
   3   -287.7777220  0.188688E-06  0.198E-03    3.24       4.0  T
   4   -287.7777224 -0.369884E-06  0.509E-04    3.24      15.6  T
   5   -287.7777224 -0.108043E-07  0.264E-04    3.24      30.0  T
     SCC iter.                  ...        0 min,  1.045 sec
     gradient                   ...        0 min,  0.305 sec
 * total energy  :  -285.4581424 Eh     change       -0.7710280E-04 Eh
   gradient norm :     0.0029895 Eh/α   predicted    -0.5970638E-04 ( -22.56%)
   displ. norm   :     0.1084403 α      lambda       -0.5484091E-04
   maximum displ.:     0.0402925 α      in ANC's #1, #12, #9, ...

........................................................................
.............................. CYCLE   46 ..............................
........................................................................
   1   -287.7774551 -0.287777E+03  0.109E-02    3.25       0.0  T
   2   -287.7774554 -0.275729E-06  0.660E-03    3.25       1.2  T
   3   -287.7774553  0.177201E-07  0.103E-03    3.25       7.7  T
   4   -287.7774554 -0.931444E-07  0.385E-04    3.25      20.6  T
   5   -287.7774554 -0.536409E-08  0.199E-04    3.25      39.9  T
     SCC iter.                  ...        0 min,  1.244 sec
     gradient                   ...        0 min,  0.373 sec
 * total energy  :  -285.4581870 Eh     change       -0.4460041E-04 Eh
   gradient norm :     0.0040625 Eh/α   predicted    -0.2780858E-04 ( -37.65%)
   displ. norm   :     0.2362990 α      lambda       -0.1051972E-03
   maximum displ.:     0.0908935 α      in ANC's #1, #9, #12, ...

........................................................................
.............................. CYCLE   47 ..............................
........................................................................
   1   -287.7775051 -0.287778E+03  0.223E-02    3.26       0.0  T
   2   -287.7775063 -0.119365E-05  0.135E-02    3.26       1.0  T
   3   -287.7775059  0.357796E-06  0.246E-03    3.26       3.2  T
   4   -287.7775066 -0.692501E-06  0.783E-04    3.26      10.1  T
   5   -287.7775066 -0.280729E-07  0.409E-04    3.26      19.4  T
     SCC iter.                  ...        0 min,  0.931 sec
     gradient                   ...        0 min,  0.359 sec
 * total energy  :  -285.4582658 Eh     change       -0.7881593E-04 Eh
   gradient norm :     0.0042667 Eh/α   predicted    -0.5559081E-04 ( -29.47%)
   displ. norm   :     0.2646801 α      lambda       -0.9837450E-04
   maximum displ.:     0.1074081 α      in ANC's #1, #9, #8, ...

........................................................................
.............................. CYCLE   48 ..............................
........................................................................
   1   -287.7779088 -0.287778E+03  0.236E-02    3.27       0.0  T
   2   -287.7779103 -0.152377E-05  0.143E-02    3.27       1.0  T
   3   -287.7779096  0.634124E-06  0.288E-03    3.27       2.8  T
   4   -287.7779107 -0.104128E-05  0.829E-04    3.27       9.6  T
   5   -287.7779107 -0.379687E-07  0.437E-04    3.27      18.2  T
   6   -287.7779107 -0.474336E-08  0.147E-04    3.27      53.8  T
     SCC iter.                  ...        0 min,  1.675 sec
     gradient                   ...        0 min,  0.351 sec
 * total energy  :  -285.4583425 Eh     change       -0.7665539E-04 Eh
   gradient norm :     0.0039019 Eh/α   predicted    -0.5263345E-04 ( -31.34%)
   displ. norm   :     0.3113503 α      lambda       -0.1146029E-03
   maximum displ.:     0.1326406 α      in ANC's #1, #8, #3, ...

........................................................................
.............................. CYCLE   49 ..............................
........................................................................
   1   -287.7786214 -0.287779E+03  0.264E-02    3.28       0.0  T
   2   -287.7786234 -0.201500E-05  0.160E-02    3.28       1.0  T
   3   -287.7786225  0.917091E-06  0.333E-03    3.28       2.4  T
   4   -287.7786239 -0.143528E-05  0.943E-04    3.28       8.4  T
   5   -287.7786239 -0.575820E-07  0.486E-04    3.28      16.3  T
   6   -287.7786240 -0.663516E-08  0.171E-04    3.28      46.4  T
     SCC iter.                  ...        0 min,  1.514 sec
     gradient                   ...        0 min,  0.333 sec
 * total energy  :  -285.4584319 Eh     change       -0.8947691E-04 Eh
   gradient norm :     0.0043930 Eh/α   predicted    -0.6285862E-04 ( -29.75%)
   displ. norm   :     0.3330241 α      lambda       -0.1293843E-03
   maximum displ.:     0.1491385 α      in ANC's #1, #3, #8, ...

........................................................................
.............................. CYCLE   50 ..............................
........................................................................
   1   -287.7793752 -0.287779E+03  0.273E-02    3.29       0.0  T
   2   -287.7793772 -0.207327E-05  0.165E-02    3.29       1.0  T
   3   -287.7793764  0.890323E-06  0.329E-03    3.29       2.4  T
   4   -287.7793778 -0.142080E-05  0.970E-04    3.29       8.2  T
   5   -287.7793778 -0.623583E-07  0.490E-04    3.29      16.2  T
   6   -287.7793778 -0.849053E-08  0.180E-04    3.29      44.0  T
     SCC iter.                  ...        0 min,  1.364 sec
     gradient                   ...        0 min,  0.333 sec
 * total energy  :  -285.4585345 Eh     change       -0.1025391E-03 Eh
   gradient norm :     0.0055089 Eh/α   predicted    -0.7189070E-04 ( -29.89%)
   displ. norm   :     0.3695001 α      lambda       -0.1507507E-03
   maximum displ.:     0.1727414 α      in ANC's #1, #3, #8, ...

........................................................................
.............................. CYCLE   51 ..............................
........................................................................
   1   -287.7795959 -0.287780E+03  0.297E-02    3.29       0.0  T
   2   -287.7795983 -0.235419E-05  0.180E-02    3.29       1.0  T
   3   -287.7795974  0.866358E-06  0.337E-03    3.29       2.4  T
   4   -287.7795989 -0.148153E-05  0.104E-03    3.29       7.6  T
   5   -287.7795989 -0.666253E-07  0.529E-04    3.29      15.0  T
   6   -287.7795990 -0.113070E-07  0.200E-04    3.29      39.7  T
     SCC iter.                  ...        0 min,  1.454 sec
     gradient                   ...        0 min,  0.338 sec
 * total energy  :  -285.4586551 Eh     change       -0.1206641E-03 Eh
   gradient norm :     0.0063741 Eh/α   predicted    -0.8566673E-04 ( -29.00%)
   displ. norm   :     0.4033457 α      lambda       -0.1792466E-03
   maximum displ.:     0.1966478 α      in ANC's #1, #3, #8, ...

........................................................................
.............................. CYCLE   52 ..............................
........................................................................
   1   -287.7793096 -0.287779E+03  0.321E-02    3.29       0.0  T
   2   -287.7793125 -0.288348E-05  0.194E-02    3.29       1.0  T
   3   -287.7793115  0.962086E-06  0.365E-03    3.29       2.2  T
   4   -287.7793132 -0.170518E-05  0.112E-03    3.29       7.1  T
   5   -287.7793133 -0.700461E-07  0.583E-04    3.29      13.6  T
   6   -287.7793133 -0.137339E-07  0.223E-04    3.29      35.6  T
     SCC iter.                  ...        0 min,  1.386 sec
     gradient                   ...        0 min,  0.349 sec
 * total energy  :  -285.4587957 Eh     change       -0.1405817E-03 Eh
   gradient norm :     0.0061689 Eh/α   predicted    -0.1042093E-03 ( -25.87%)
   displ. norm   :     0.4157302 α      lambda       -0.1838160E-03
   maximum displ.:     0.2107065 α      in ANC's #1, #3, #8, ...

........................................................................
.............................. CYCLE   53 ..............................
........................................................................
   1   -287.7781891 -0.287778E+03  0.329E-02    3.29       0.0  T
   2   -287.7781923 -0.317807E-05  0.199E-02    3.29       1.0  T
   3   -287.7781913  0.991586E-06  0.383E-03    3.29       2.1  T
   4   -287.7781932 -0.182356E-05  0.117E-03    3.29       6.8  T
   5   -287.7781932 -0.708239E-07  0.629E-04    3.29      12.6  T
   6   -287.7781932 -0.146027E-07  0.232E-04    3.29      34.2  T
     SCC iter.                  ...        0 min,  1.553 sec
     gradient                   ...        0 min,  0.333 sec
 * total energy  :  -285.4589369 Eh     change       -0.1412140E-03 Eh
   gradient norm :     0.0069830 Eh/α   predicted    -0.1078188E-03 ( -23.65%)
   displ. norm   :     0.3458889 α      lambda       -0.2632770E-03
   maximum displ.:     0.1690176 α      in ANC's #1, #3, #2, ...

........................................................................
.............................. CYCLE   54 ..............................
........................................................................
   1   -287.7809590 -0.287781E+03  0.314E-02    3.28       0.0  T
   2   -287.7809637 -0.466365E-05  0.188E-02    3.28       1.0  T
   3   -287.7809626  0.112198E-05  0.450E-03    3.28       1.8  T
   4   -287.7809647 -0.210726E-05  0.131E-03    3.28       6.1  T
   5   -287.7809648 -0.925839E-07  0.686E-04    3.28      11.6  T
   6   -287.7809648 -0.190691E-07  0.303E-04    3.28      26.1  T
     SCC iter.                  ...        0 min,  1.420 sec
     gradient                   ...        0 min,  0.382 sec
 * total energy  :  -285.4588968 Eh     change        0.4010932E-04 Eh
   gradient norm :     0.0159146 Eh/α   predicted    -0.1473913E-03 (-467.47%)
   displ. norm   :     0.3665145 α      lambda       -0.5143204E-03
   maximum displ.:     0.1844549 α      in ANC's #1, #3, #8, ...

........................................................................
.............................. CYCLE   55 ..............................
........................................................................
   1   -287.7764704 -0.287776E+03  0.344E-02    3.28       0.0  T
   2   -287.7764749 -0.453430E-05  0.207E-02    3.28       1.0  T
   3   -287.7764751 -0.172111E-06  0.368E-03    3.28       2.2  T
   4   -287.7764761 -0.103422E-05  0.153E-03    3.28       5.2  T
   5   -287.7764762 -0.975941E-07  0.806E-04    3.28       9.8  T
   6   -287.7764762 -0.305635E-07  0.327E-04    3.28      24.2  T
     SCC iter.                  ...        0 min,  1.696 sec
     gradient                   ...        0 min,  0.351 sec
 * total energy  :  -285.4591298 Eh     change       -0.2329388E-03 Eh
   gradient norm :     0.0113948 Eh/α   predicted    -0.2917085E-03 (  25.23%)
   displ. norm   :     0.2040534 α      lambda       -0.1571399E-03
   maximum displ.:     0.0889390 α      in ANC's #1, #3, #8, ...

........................................................................
.............................. CYCLE   56 ..............................
........................................................................
   1   -287.7784412 -0.287778E+03  0.185E-02    3.29       0.0  T
   2   -287.7784430 -0.178625E-05  0.112E-02    3.29       1.0  T
   3   -287.7784427  0.306145E-06  0.270E-03    3.29       2.9  T
   4   -287.7784434 -0.689983E-06  0.761E-04    3.29      10.4  T
   5   -287.7784434 -0.265448E-07  0.397E-04    3.29      20.0  T
     SCC iter.                  ...        0 min,  1.626 sec
     gradient                   ...        0 min,  0.347 sec
 * total energy  :  -285.4592143 Eh     change       -0.8449231E-04 Eh
   gradient norm :     0.0048100 Eh/α   predicted    -0.8184067E-04 (  -3.14%)
   displ. norm   :     0.2649617 α      lambda       -0.1443647E-03
   maximum displ.:     0.1482133 α      in ANC's #1, #3, #2, ...

........................................................................
.............................. CYCLE   57 ..............................
........................................................................
   1   -287.7787575 -0.287779E+03  0.232E-02    3.30       0.0  T
   2   -287.7787585 -0.102539E-05  0.139E-02    3.30       1.0  T
   3   -287.7787581  0.461180E-06  0.237E-03    3.30       3.3  T
   4   -287.7787588 -0.729008E-06  0.730E-04    3.30      10.9  T
   5   -287.7787588 -0.308080E-07  0.381E-04    3.30      20.8  T
     SCC iter.                  ...        0 min,  1.190 sec
     gradient                   ...        0 min,  0.338 sec
 * total energy  :  -285.4593345 Eh     change       -0.1202723E-03 Eh
   gradient norm :     0.0030404 Eh/α   predicted    -0.7725170E-04 ( -35.77%)
   displ. norm   :     0.4708412 α      lambda       -0.2233007E-03
   maximum displ.:     0.2658569 α      in ANC's #1, #3, #2, ...

........................................................................
.............................. CYCLE   58 ..............................
........................................................................
   1   -287.7793506 -0.287779E+03  0.417E-02    3.31       0.0  T
   2   -287.7793551 -0.443759E-05  0.251E-02    3.31       1.0  T
   3   -287.7793543  0.714803E-06  0.414E-03    3.31       1.9  T
   4   -287.7793561 -0.179714E-05  0.146E-03    3.31       5.4  T
   5   -287.7793562 -0.102819E-06  0.784E-04    3.31      10.1  T
   6   -287.7793563 -0.218259E-07  0.297E-04    3.31      26.7  T
     SCC iter.                  ...        0 min,  1.402 sec
     gradient                   ...        0 min,  0.363 sec
 * total energy  :  -285.4594828 Eh     change       -0.1482672E-03 Eh
   gradient norm :     0.0068364 Eh/α   predicted    -0.1364023E-03 (  -8.00%)
   displ. norm   :     0.2443068 α      lambda       -0.1007935E-03
   maximum displ.:     0.1415359 α      in ANC's #1, #2, #12, ...

........................................................................
.............................. CYCLE   59 ..............................
........................................................................
   1   -287.7800036 -0.287780E+03  0.213E-02    3.31       0.0  T
   2   -287.7800046 -0.965181E-06  0.128E-02    3.31       1.0  T
   3   -287.7800044  0.214978E-06  0.205E-03    3.31       3.9  T
   4   -287.7800048 -0.462962E-06  0.692E-04    3.31      11.5  T
   5   -287.7800049 -0.219226E-07  0.365E-04    3.31      21.7  T
     SCC iter.                  ...        0 min,  1.165 sec
     gradient                   ...        0 min,  0.354 sec
 * total energy  :  -285.4595568 Eh     change       -0.7399103E-04 Eh
   gradient norm :     0.0043246 Eh/α   predicted    -0.5340929E-04 ( -27.82%)
   displ. norm   :     0.2038566 α      lambda       -0.7650766E-04
   maximum displ.:     0.1224008 α      in ANC's #1, #12, #2, ...

........................................................................
.............................. CYCLE   60 ..............................
........................................................................
   1   -287.7806984 -0.287781E+03  0.170E-02    3.32       0.0  T
   2   -287.7806991 -0.689870E-06  0.103E-02    3.32       1.0  T
   3   -287.7806989  0.186679E-06  0.175E-03    3.32       4.5  T
   4   -287.7806993 -0.368286E-06  0.567E-04    3.32      14.0  T
   5   -287.7806993 -0.156405E-07  0.298E-04    3.32      26.6  T
     SCC iter.                  ...        0 min,  1.230 sec
     gradient                   ...        0 min,  0.371 sec
 * total energy  :  -285.4596136 Eh     change       -0.5677032E-04 Eh
   gradient norm :     0.0020903 Eh/α   predicted    -0.3984810E-04 ( -29.81%)
   displ. norm   :     0.2571376 α      lambda       -0.6404120E-04
   maximum displ.:     0.1597874 α      in ANC's #1, #2, #12, ...

........................................................................
.............................. CYCLE   61 ..............................
........................................................................
   1   -287.7802331 -0.287780E+03  0.213E-02    3.32       0.0  T
   2   -287.7802345 -0.135502E-05  0.129E-02    3.32       1.0  T
   3   -287.7802341  0.341119E-06  0.240E-03    3.32       3.3  T
   4   -287.7802348 -0.700781E-06  0.824E-04    3.32       9.6  T
   5   -287.7802349 -0.392538E-07  0.424E-04    3.32      18.7  T
     SCC iter.                  ...        0 min,  1.148 sec
     gradient                   ...        0 min,  0.342 sec
 * total energy  :  -285.4596527 Eh     change       -0.3917157E-04 Eh
   gradient norm :     0.0036572 Eh/α   predicted    -0.3413857E-04 ( -12.85%)
   displ. norm   :     0.1858384 α      lambda       -0.8381740E-04
   maximum displ.:     0.0714032 α      in ANC's #12, #15, #1, ...

........................................................................
.............................. CYCLE   62 ..............................
........................................................................
   1   -287.7828978 -0.287783E+03  0.160E-02    3.32       0.0  T
   2   -287.7828985 -0.695826E-06  0.967E-03    3.32       1.0  T
   3   -287.7828979  0.670432E-06  0.235E-03    3.32       3.4  T
   4   -287.7828988 -0.916275E-06  0.630E-04    3.32      12.6  T
   5   -287.7828988 -0.244140E-07  0.320E-04    3.32      24.8  T
     SCC iter.                  ...        0 min,  1.237 sec
     gradient                   ...        0 min,  0.335 sec
 * total energy  :  -285.4596684 Eh     change       -0.1568327E-04 Eh
   gradient norm :     0.0059337 Eh/α   predicted    -0.4336050E-04 ( 176.48%)
   displ. norm   :     0.0644082 α      lambda       -0.4848408E-04
   maximum displ.:     0.0355681 α      in ANC's #1, #8, #3, ...

........................................................................
.............................. CYCLE   63 ..............................
........................................................................
   1   -287.7812024 -0.287781E+03  0.683E-03    3.32       0.0  T
   2   -287.7812025 -0.151203E-06  0.411E-03    3.32       1.9  T
   3   -287.7812025  0.206213E-07  0.768E-04    3.32      10.3  T
   4   -287.7812026 -0.655979E-07  0.305E-04    3.32      26.0  T
     SCC iter.                  ...        0 min,  0.925 sec
     gradient                   ...        0 min,  0.325 sec
 * total energy  :  -285.4596995 Eh     change       -0.3110537E-04 Eh
   gradient norm :     0.0020051 Eh/α   predicted    -0.2434695E-04 ( -21.73%)
   displ. norm   :     0.0553778 α      lambda       -0.2351977E-04
   maximum displ.:     0.0220228 α      in ANC's #14, #3, #12, ...

........................................................................
.............................. CYCLE   64 ..............................
........................................................................
   1   -287.7807037 -0.287781E+03  0.537E-03    3.32       0.0  T
   2   -287.7807038 -0.921025E-07  0.322E-03    3.32       2.5  T
   3   -287.7807036  0.101334E-06  0.106E-03    3.32       7.5  T
   4   -287.7807038 -0.134337E-06  0.211E-04    3.32      37.5  T
   5   -287.7807038 -0.236190E-08  0.103E-04    3.32      77.3  T
     SCC iter.                  ...        0 min,  1.219 sec
     gradient                   ...        0 min,  0.354 sec
 * total energy  :  -285.4597176 Eh     change       -0.1805014E-04 Eh
   gradient norm :     0.0014548 Eh/α   predicted    -0.1180039E-04 ( -34.62%)
   displ. norm   :     0.1783507 α      lambda       -0.2888415E-04
   maximum displ.:     0.0757858 α      in ANC's #3, #14, #6, ...

........................................................................
.............................. CYCLE   65 ..............................
........................................................................
   1   -287.7799324 -0.287780E+03  0.162E-02    3.31       0.0  T
   2   -287.7799330 -0.674180E-06  0.976E-03    3.31       1.0  T
   3   -287.7799319  0.116878E-05  0.322E-03    3.31       2.5  T
   4   -287.7799333 -0.147813E-05  0.577E-04    3.31      13.7  T
   5   -287.7799334 -0.141918E-07  0.286E-04    3.31      27.7  T
[...]
                            95 H    0.954
    85   8 O    1.973 --    80 C    1.001    97 H    0.864
    86   8 O    1.962 --    81 C    1.008    98 H    0.871
    87   8 O    2.105 --    58 C    0.981    82 C    0.964
    88   8 O    2.082 --    79 C    0.975    83 C    0.961
    89   8 O    1.975 --    84 C    0.986    99 H    0.890
    90   1 H    0.995 --    79 C    0.947
    91   1 H    0.997 --    80 C    0.955
    92   1 H    0.997 --    81 C    0.952
    93   1 H    0.998 --    82 C    0.957
    94   1 H    0.998 --    83 C    0.948
    95   1 H    0.992 --    84 C    0.954
    96   1 H    0.996 --    84 C    0.971
    97   1 H    0.886 --    85 O    0.864
    98   1 H    0.892 --    86 O    0.871
    99   1 H    0.904 --    89 O    0.890
   100   6 C    3.920 --   108 O    0.979   122 O    0.975   101 C    0.953
                           109 H    0.940
   101   6 C    3.960 --   105 O    0.998   102 C    0.969   110 H    0.957
                           100 C    0.953
   102   6 C    3.962 --   106 O    1.008   101 C    0.969   103 C    0.957
                           111 H    0.954
   103   6 C    3.942 --   107 O    0.964   104 C    0.964   102 C    0.957
                             1 H    0.957
   104   6 C    3.950 --   144 C    0.977   108 O    0.969   103 C    0.964
                           145 H    0.955
   105   8 O    1.980 --   101 C    0.998   112 H    0.868
   106   8 O    1.954 --   102 C    1.008   113 H    0.844
   107   8 O    2.092 --    79 C    0.973   103 C    0.964
   108   8 O    2.095 --   100 C    0.979   104 C    0.969
   109   1 H    0.993 --   100 C    0.940
   110   1 H    0.998 --   101 C    0.957
   111   1 H    0.997 --   102 C    0.954
   112   1 H    0.889 --   105 O    0.868
   113   1 H    0.888 --   106 O    0.844
   114   6 C    3.926 --    10 O    0.983   123 O    0.972   115 C    0.955
                           125 H    0.945
   115   6 C    3.962 --   120 O    1.002   116 C    0.962   126 H    0.956
                           114 C    0.955
   116   6 C    3.963 --   121 O    1.004   117 C    0.971   115 C    0.962
                           127 H    0.953
   117   6 C    3.940 --   116 C    0.971   118 C    0.962   122 O    0.956
                           128 H    0.955
   118   6 C    3.941 --   119 C    0.977   123 O    0.962   117 C    0.962
                           129 H    0.953
   119   6 C    3.956 --   124 O    1.012   118 C    0.977   130 H    0.968
                           131 H    0.964
   120   8 O    1.963 --   115 C    1.002   132 H    0.872
   121   8 O    1.957 --   116 C    1.004   133 H    0.851
   122   8 O    2.080 --   100 C    0.975   117 C    0.956
   123   8 O    2.086 --   114 C    0.972   118 C    0.962
   124   8 O    1.968 --   119 C    1.012   134 H    0.878
   125   1 H    0.997 --   114 C    0.945
   126   1 H    0.998 --   115 C    0.956
   127   1 H    0.995 --   116 C    0.953
   128   1 H    0.997 --   117 C    0.955
   129   1 H    0.997 --   118 C    0.953
   130   1 H    0.995 --   119 C    0.968
   131   1 H    0.997 --   119 C    0.964
   132   1 H    0.892 --   120 O    0.872
   133   1 H    0.897 --   121 O    0.851
   134   1 H    0.907 --   124 O    0.878
   135   6 C    3.948 --   142 C    1.373   136 C    1.292   137 N    1.077
   136   6 C    3.946 --   143 C    1.372   135 C    1.292   138 N    1.077
   137   7 N    3.579 --   139 C    1.241   135 C    1.077   144 C    0.985
   138   7 N    3.592 --   139 C    1.259   136 C    1.077    46 C    0.979
   139   6 C    3.970 --   151 N    1.306   138 N    1.259   137 N    1.241
   140   1 H    0.990 --    46 C    0.953
   141   1 H    0.986 --    46 C    0.951
   142   6 C    3.983 --   154 C    1.455   135 C    1.373   158 H    0.957
                           143 C    0.114
   143   6 C    3.980 --   153 C    1.458   136 C    1.372   156 H    0.947
                           142 C    0.114
   144   6 C    3.957 --   137 N    0.985   104 C    0.977   146 H    0.959
                           147 H    0.957
   145   1 H    0.995 --   104 C    0.955
   146   1 H    0.990 --   144 C    0.959
   147   1 H    0.992 --   144 C    0.957
   148   8 O    1.949 --    25 C    1.010   150 H    0.839
   149   1 H    0.998 --    25 C    0.952
   150   1 H    0.889 --   148 O    0.839
   151   7 N    3.360 --   139 C    1.306   152 H    0.899   159 H    0.870
   152   1 H    0.948 --   151 N    0.899
   153   6 C    3.982 --   143 C    1.458   154 C    1.413   155 H    0.967
   154   6 C    3.983 --   142 C    1.455   153 C    1.413   157 H    0.964
   155   1 H    0.994 --   153 C    0.967
   156   1 H    0.991 --   143 C    0.947
   157   1 H    0.995 --   154 C    0.964
   158   1 H    0.992 --   142 C    0.957
   159   1 H    0.932 --   151 N    0.870
 ---------------------------------------------------------------------------

Topologies differ in total number of bonds
Writing topology from bond orders to xtbtopo.mol

molecular dipole:
                 x           y           z       tot (Debye)
 q only:      -50.801     -53.509     -27.794
   full:      -50.990     -53.527     -27.499     200.481
molecular quadrupole (traceless):
                xx          xy          yy          xz          yz          zz
 q only:      763.255    4095.950    1190.623    2127.561    2255.439   -1953.878
  q+dip:      800.322    4127.276    1179.556    2118.289    2244.417   -1979.878
   full:      796.261    4124.962    1182.147    2119.181    2241.998   -1978.408

           -------------------------------------------------
          |                Geometry Summary                 |
           -------------------------------------------------

      molecular mass/u    :     1233.1141466
   center of mass at/Å    :      -26.2429198     -29.4134989     -13.5311553
  moments of inertia/u·Å² :        0.1908769E+05   0.2524081E+05   0.3415539E+05
rotational constants/cm⁻¹ :        0.8831678E-03   0.6678721E-03   0.4935571E-03

 * 163 selected distances

     #   Z          #   Z                                           value/Å
     2   6 C        3   6 C                                       1.5394449
     3   6 C        4   6 C                                       1.5272776
     4   6 C        5   6 C                                       1.5365276
     5   6 C        6   6 C                                       1.5402704
     6   6 C        7   6 C                                       1.5321407
     3   6 C        8   8 O                                       1.4045044
     4   6 C        9   8 O                                       1.4029441
     5   6 C       10   8 O                                       1.4152829
     2   6 C       11   8 O                                       1.3981694
     6   6 C       11   8 O                                       1.4234649
     7   6 C       12   8 O                                       1.4138462
     2   6 C       13   1 H                                       1.0974279
     3   6 C       14   1 H                                       1.0993160
     4   6 C       15   1 H                                       1.1011397
     5   6 C       16   1 H                                       1.0977874
     6   6 C       17   1 H                                       1.0986324
     7   6 C       18   1 H                                       1.0971187
     7   6 C       19   1 H                                       1.0959084
     8   8 O       20   1 H                                       0.9675617
     9   8 O       21   1 H                                       0.9717615
    12   8 O       22   1 H                                       0.9634348
    23   6 C       24   6 C                                       1.5367095
    24   6 C       25   6 C                                       1.5283525
    25   6 C       26   6 C                                       1.5354040
    26   6 C       27   6 C                                       1.5407501
    27   6 C       28   6 C                                       1.5279196
    24   6 C       29   8 O                                       1.4039972
     2   6 C       30   8 O                                       1.4001400
    26   6 C       30   8 O                                       1.4144078
    23   6 C       31   8 O                                       1.3948553
    27   6 C       31   8 O                                       1.4207490
    28   6 C       32   8 O                                       1.4107073
    23   6 C       33   1 H                                       1.0964174
    24   6 C       34   1 H                                       1.1008026
    26   6 C       35   1 H                                       1.0980162
    27   6 C       36   1 H                                       1.0988156
    28   6 C       37   1 H                                       1.0975767
    28   6 C       38   1 H                                       1.0957683
    29   8 O       39   1 H                                       0.9680621
    32   8 O       40   1 H                                       0.9625902 (min)
    41   6 C       42   6 C                                       1.5360089
    42   6 C       43   6 C                                       1.5322939
    44   6 C       45   6 C                                       1.5406921
    45   6 C       46   6 C                                       1.5315897
    42   6 C       47   8 O                                       1.4044182
    43   6 C       48   8 O                                       1.3998172
    23   6 C       49   8 O                                       1.4124965
    44   6 C       49   8 O                                       1.4141456
    41   6 C       50   8 O                                       1.3998897
    45   6 C       50   8 O                                       1.4252706
    41   6 C       51   1 H                                       1.0937908
    42   6 C       52   1 H                                       1.1000043
    43   6 C       53   1 H                                       1.1004314
    44   6 C       54   1 H                                       1.0987831
    45   6 C       55   1 H                                       1.0979483
    47   8 O       56   1 H                                       0.9681300
    48   8 O       57   1 H                                       0.9737781
    58   6 C       59   6 C                                       1.5347236
    59   6 C       60   6 C                                       1.5340238
    60   6 C       61   6 C                                       1.5368113
    61   6 C       62   6 C                                       1.5388011
    59   6 C       64   8 O                                       1.4006949
    60   6 C       65   8 O                                       1.4040436
    41   6 C       66   8 O                                       1.4020128
    61   6 C       66   8 O                                       1.4239550
    58   6 C       67   8 O                                       1.4020819
    62   6 C       67   8 O                                       1.4216788
    63   6 C       68   8 O                                       1.4042348
    58   6 C       69   1 H                                       1.0978240
    59   6 C       70   1 H                                       1.0997005
    60   6 C       71   1 H                                       1.1020776
    61   6 C       72   1 H                                       1.0964748
    62   6 C       73   1 H                                       1.1004578
    63   6 C       74   1 H                                       1.0914419
    63   6 C       75   1 H                                       1.0954607
    64   8 O       76   1 H                                       0.9664359
    65   8 O       77   1 H                                       0.9691842
    68   8 O       78   1 H                                       0.9681047
    79   6 C       80   6 C                                       1.5369269
    80   6 C       81   6 C                                       1.5279022
    81   6 C       82   6 C                                       1.5401180
    82   6 C       83   6 C                                       1.5407391
    83   6 C       84   6 C                                       1.5315241
    80   6 C       85   8 O                                       1.4020651
    81   6 C       86   8 O                                       1.4005490
    58   6 C       87   8 O                                       1.3950638
    82   6 C       87   8 O                                       1.4167463
    79   6 C       88   8 O                                       1.4000045
    83   6 C       88   8 O                                       1.4212833
    84   6 C       89   8 O                                       1.4223308
    79   6 C       90   1 H                                       1.0958980
    80   6 C       91   1 H                                       1.1007175
    81   6 C       92   1 H                                       1.1020574
    82   6 C       93   1 H                                       1.0968523
    83   6 C       94   1 H                                       1.1017792
    84   6 C       95   1 H                                       1.0882922
    84   6 C       96   1 H                                       1.0921120
    85   8 O       97   1 H                                       0.9673181
    86   8 O       98   1 H                                       0.9686755
    89   8 O       99   1 H                                       0.9635777
   101   6 C      102   6 C                                       1.5327875
     1   1 H      103   6 C                                       1.0990127
   103   6 C      104   6 C                                       1.5416474 (max)
   101   6 C      105   8 O                                       1.4063622
   102   6 C      106   8 O                                       1.4035540
    79   6 C      107   8 O                                       1.4061871
   103   6 C      107   8 O                                       1.4165932
   100   6 C      108   8 O                                       1.3999601
   104   6 C      108   8 O                                       1.4201660
   100   6 C      109   1 H                                       1.0980693
   101   6 C      110   1 H                                       1.1008691
   102   6 C      111   1 H                                       1.0995296
   105   8 O      112   1 H                                       0.9691174
   106   8 O      113   1 H                                       0.9721989
    10   8 O      114   6 C                                       1.3933028
   114   6 C      115   6 C                                       1.5340029
   115   6 C      116   6 C                                       1.5354858
   116   6 C      117   6 C                                       1.5350923
   118   6 C      119   6 C                                       1.5345591
   115   6 C      120   8 O                                       1.4041612
   116   6 C      121   8 O                                       1.4053128
   100   6 C      122   8 O                                       1.4034298
   117   6 C      122   8 O                                       1.4248668
   114   6 C      123   8 O                                       1.4002930
   118   6 C      123   8 O                                       1.4204018
   119   6 C      124   8 O                                       1.3991071
   114   6 C      125   1 H                                       1.0979018
   115   6 C      126   1 H                                       1.1005032
   116   6 C      127   1 H                                       1.0976922
   117   6 C      128   1 H                                       1.0956177
   118   6 C      129   1 H                                       1.1019299
   119   6 C      130   1 H                                       1.0922363
   119   6 C      131   1 H                                       1.0986109
   120   8 O      132   1 H                                       0.9677167
   121   8 O      133   1 H                                       0.9715768
   124   8 O      134   1 H                                       0.9654492
   135   6 C      136   6 C                                       1.4008385
   135   6 C      137   7 N                                       1.3951042
    46   6 C      138   7 N                                       1.4503790
   136   6 C      138   7 N                                       1.3942012
   137   7 N      139   6 C                                       1.3564723
   138   7 N      139   6 C                                       1.3498010
    46   6 C      140   1 H                                       1.0960793
    46   6 C      141   1 H                                       1.0914742
   135   6 C      142   6 C                                       1.3839762
   136   6 C      143   6 C                                       1.3840027
   137   7 N      144   6 C                                       1.4481639
   104   6 C      145   1 H                                       1.0971853
   144   6 C      146   1 H                                       1.0936415
   144   6 C      147   1 H                                       1.0890000
    25   6 C      148   8 O                                       1.4009894
    25   6 C      149   1 H                                       1.1021925
   148   8 O      150   1 H                                       0.9752103
   139   6 C      151   7 N                                       1.3316227
   151   7 N      152   1 H                                       1.0130114
   143   6 C      153   6 C                                       1.3834156
   142   6 C      154   6 C                                       1.3854832
   153   6 C      154   6 C                                       1.3906290
   153   6 C      155   1 H                                       1.0768316
   143   6 C      156   1 H                                       1.0771010
   154   6 C      157   1 H                                       1.0790723
   142   6 C      158   1 H                                       1.0759164
   151   7 N      159   1 H                                       1.0218900

 * 6 distinct bonds (by element types)

   Z      Z             #   av. dist./Å        max./Å        min./Å
   1 H    6 C          53     1.0959868     1.1021925     1.0759164
   6 C    6 C          35     1.5099678     1.5416474     1.3834156
   1 H    7 N           2     1.0174507     1.0218900     1.0130114
   6 C    7 N           7     1.3893920     1.4503790     1.3316227
   1 H    8 O          19     0.9684149     0.9752103     0.9625902
   6 C    8 O          47     1.4080966     1.4252706     1.3933028


optimized geometry written to: xtbopt.xyz


           -------------------------------------------------
          | TOTAL ENERGY             -285.459788481171 Eh   |
          | GRADIENT NORM               0.000427660976 Eh/α |
          | HOMO-LUMO GAP               3.298784884448 eV   |
           -------------------------------------------------

------------------------------------------------------------------------
 * finished run on 2022/03/02 at 03:03:11.578     
------------------------------------------------------------------------
 total:
 * wall-time:     0 d,  0 h,  2 min, 33.317 sec
 *  cpu-time:     0 d,  3 h, 48 min, 14.938 sec
 * ratio c/w:    89.324 speedup
 SCF:
 * wall-time:     0 d,  0 h,  0 min,  3.563 sec
 *  cpu-time:     0 d,  0 h,  5 min, 25.843 sec
 * ratio c/w:    91.458 speedup
 ANC optimizer:
 * wall-time:     0 d,  0 h,  2 min, 29.546 sec
 *  cpu-time:     0 d,  3 h, 42 min, 34.472 sec
 * ratio c/w:    89.300 speedup

