
                                 *****************
                                 * O   R   C   A *
                                 *****************

                                            #,                                       
                                            ###                                      
                                            ####                                     
                                            #####                                    
                                            ######                                   
                                           ########,                                 
                                     ,,################,,,,,                         
                               ,,#################################,,                 
                          ,,##########################################,,             
                       ,#########################################, ''#####,          
                    ,#############################################,,   '####,        
                  ,##################################################,,,,####,       
                ,###########''''           ''''###############################       
              ,#####''   ,,,,##########,,,,          '''####'''          '####       
            ,##' ,,,,###########################,,,                        '##       
           ' ,,###''''                  '''############,,,                           
         ,,##''                                '''############,,,,        ,,,,,,###''
      ,#''                                            '''#######################'''  
     '                                                          ''''####''''         
             ,#######,   #######,   ,#######,      ##                                
            ,#'     '#,  ##    ##  ,#'     '#,    #''#        ######   ,####,        
            ##       ##  ##   ,#'  ##            #'  '#       #        #'  '#        
            ##       ##  #######   ##           ,######,      #####,   #    #        
            '#,     ,#'  ##    ##  '#,     ,#' ,#      #,         ##   #,  ,#        
             '#######'   ##     ##  '#######'  #'      '#     #####' # '####'        



                  #######################################################
                  #                        -***-                        #
                  #          Department of theory and spectroscopy      #
                  #    Directorship and core code : Frank Neese         #
                  #        Max Planck Institute fuer Kohlenforschung    #
                  #                Kaiser Wilhelm Platz 1               #
                  #                 D-45470 Muelheim/Ruhr               #
                  #                      Germany                        #
                  #                                                     #
                  #                  All rights reserved                #
                  #                        -***-                        #
                  #######################################################


                         Program Version 5.0.1 -  RELEASE  -


 With contributions from (in alphabetic order):
   Daniel Aravena         : Magnetic Suceptibility
   Michael Atanasov       : Ab Initio Ligand Field Theory (pilot matlab implementation)
   Alexander A. Auer      : GIAO ZORA, VPT2 properties, NMR spectrum
   Ute Becker             : Parallelization
   Giovanni Bistoni       : ED, misc. LED, open-shell LED, HFLD
   Martin Brehm           : Molecular dynamics
   Dmytro Bykov           : SCF Hessian
   Vijay G. Chilkuri      : MRCI spin determinant printing, contributions to CSF-ICE
   Dipayan Datta          : RHF DLPNO-CCSD density
   Achintya Kumar Dutta   : EOM-CC, STEOM-CC
   Dmitry Ganyushin       : Spin-Orbit,Spin-Spin,Magnetic field MRCI
   Miquel Garcia          : C-PCM and meta-GGA Hessian, CC/C-PCM, Gaussian charge scheme
   Yang Guo               : DLPNO-NEVPT2, F12-NEVPT2, CIM, IAO-localization
   Andreas Hansen         : Spin unrestricted coupled pair/coupled cluster methods
   Benjamin Helmich-Paris : MC-RPA, TRAH-SCF, COSX integrals
   Lee Huntington         : MR-EOM, pCC
   Robert Izsak           : Overlap fitted RIJCOSX, COSX-SCS-MP3, EOM
   Marcus Kettner         : VPT2
   Christian Kollmar      : KDIIS, OOCD, Brueckner-CCSD(T), CCSD density, CASPT2, CASPT2-K
   Simone Kossmann        : Meta GGA functionals, TD-DFT gradient, OOMP2, MP2 Hessian
   Martin Krupicka        : Initial AUTO-CI
   Lucas Lang             : DCDCAS
   Marvin Lechner         : AUTO-CI (C++ implementation), FIC-MRCC
   Dagmar Lenk            : GEPOL surface, SMD
   Dimitrios Liakos       : Extrapolation schemes; Compound Job, initial MDCI parallelization
   Dimitrios Manganas     : Further ROCIS development; embedding schemes
   Dimitrios Pantazis     : SARC Basis sets
   Anastasios Papadopoulos: AUTO-CI, single reference methods and gradients
   Taras Petrenko         : DFT Hessian,TD-DFT gradient, ASA, ECA, R-Raman, ABS, FL, XAS/XES, NRVS
   Peter Pinski           : DLPNO-MP2, DLPNO-MP2 Gradient
   Christoph Reimann      : Effective Core Potentials
   Marius Retegan         : Local ZFS, SOC
   Christoph Riplinger    : Optimizer, TS searches, QM/MM, DLPNO-CCSD(T), (RO)-DLPNO pert. Triples
   Tobias Risthaus        : Range-separated hybrids, TD-DFT gradient, RPA, STAB
   Michael Roemelt        : Original ROCIS implementation
   Masaaki Saitow         : Open-shell DLPNO-CCSD energy and density
   Barbara Sandhoefer     : DKH picture change effects
   Avijit Sen             : IP-ROCIS
   Kantharuban Sivalingam : CASSCF convergence, NEVPT2, FIC-MRCI
   Bernardo de Souza      : ESD, SOC TD-DFT
   Georgi Stoychev        : AutoAux, RI-MP2 NMR, DLPNO-MP2 response
   Willem Van den Heuvel  : Paramagnetic NMR
   Boris Wezisla          : Elementary symmetry handling
   Frank Wennmohs         : Technical directorship


 We gratefully acknowledge several colleagues who have allowed us to
 interface, adapt or use parts of their codes:
   Stefan Grimme, W. Hujo, H. Kruse, P. Pracht,  : VdW corrections, initial TS optimization,
                  C. Bannwarth, S. Ehlert          DFT functionals, gCP, sTDA/sTD-DF
   Ed Valeev, F. Pavosevic, A. Kumar             : LibInt (2-el integral package), F12 methods
   Garnet Chan, S. Sharma, J. Yang, R. Olivares  : DMRG
   Ulf Ekstrom                                   : XCFun DFT Library
   Mihaly Kallay                                 : mrcc  (arbitrary order and MRCC methods)
   Jiri Pittner, Ondrej Demel                    : Mk-CCSD
   Frank Weinhold                                : gennbo (NPA and NBO analysis)
   Christopher J. Cramer and Donald G. Truhlar   : smd solvation model
   Lars Goerigk                                  : TD-DFT with DH, B97 family of functionals
   V. Asgeirsson, H. Jonsson                     : NEB implementation
   FAccTs GmbH                                   : IRC, NEB, NEB-TS, DLPNO-Multilevel, CI-OPT
                                                   MM, QMMM, 2- and 3-layer-ONIOM, Crystal-QMMM,
                                                   LR-CPCM, SF, NACMEs, symmetry and pop. for TD-DFT,
                                                   nearIR, NL-DFT gradient (VV10), updates on ESD,
                                                   ML-optimized integration grids
   S Lehtola, MJT Oliveira, MAL Marques          : LibXC Library
   Liviu Ungur et al                             : ANISO software


 Your calculation uses the libint2 library for the computation of 2-el integrals
 For citations please refer to: http://libint.valeyev.net

 Your ORCA version has been built with support for libXC version: 5.1.0
 For citations please refer to: https://tddft.org/programs/libxc/

 This ORCA versions uses:
   CBLAS   interface :  Fast vector & matrix operations
   LAPACKE interface :  Fast linear algebra routines
   SCALAPACK package :  Parallel linear algebra routines
   Shared memory     :  Shared parallel matrices
   BLAS/LAPACK       :  OpenBLAS 0.3.15  USE64BITINT DYNAMIC_ARCH NO_AFFINITY SkylakeX SINGLE_THREADED
        Core in use  :  SkylakeX
   Copyright (c) 2011-2014, The OpenBLAS Project


================================================================================

----- Orbital basis set information -----
Your calculation utilizes the basis: def2-SVP
   F. Weigend and R. Ahlrichs, Phys. Chem. Chem. Phys. 7, 3297 (2005).

================================================================================
                                        WARNINGS
                       Please study these warnings very carefully!
================================================================================


WARNING: Geometry Optimization
  ===> : Switching off AutoStart
         For restart on a previous wavefunction, please use MOREAD

INFO   : the flag for use of the SHARK integral package has been found!

================================================================================
                                       INPUT FILE
================================================================================
NAME = bBiCyDNH_opt_orca.inp
|  1> ! Opt
|  2> %output 
|  3> xyzfile=True 
|  4> end 
|  5> %scf 
|  6> maxiter 250 
|  7> end
|  8> %output
|  9> Print[P_Hirshfeld] = 1
| 10> end
| 11> % maxcore
| 12> 4000
| 13> %pal nprocs 96
| 14> end
| 15> *xyz 0 1
| 16> H   -31.58161265 -29.71054099 -13.51139351
| 17> C   -21.63923467 -27.26192678 -9.60186941 
| 18> C   -21.96524456 -27.97689146 -8.27850254 
| 19> C   -23.47090737 -28.24480615 -8.21906515 
| 20> C   -24.25624357 -26.94845882 -8.48202611 
| 21> C   -23.77355282 -26.31213654 -9.79451723 
| 22> C   -24.47172176 -24.99978346 -10.15771932
| 23> O   -21.22751924 -29.17025999 -8.23606672 
| 24> O   -23.77493502 -28.78587410 -6.95952083 
| 25> O   -25.61358679 -27.32987349 -8.57342383 
| 26> O   -22.37467776 -26.07177473 -9.71353628 
| 27> O   -24.94441743 -25.12182169 -11.48782592
| 28> H   -20.58252791 -26.96119742 -9.61498601 
| 29> H   -21.68838625 -27.31884820 -7.44104957 
| 30> H   -23.72927834 -28.95797358 -9.01745789 
| 31> H   -24.09806174 -26.24945773 -7.64956722 
| 32> H   -23.97556003 -27.02758195 -10.60367031
| 33> H   -25.30558681 -24.80985284 -9.47324360 
| 34> H   -23.74091874 -24.18688026 -10.07483545
| 35> H   -21.59520964 -29.69778430 -7.51432794 
| 36> H   -24.74211926 -28.80868228 -6.85742451 
| 37> H   -25.36723408 -24.29951242 -11.76241833
| 38> C   -20.94146449 -29.05132579 -14.52260393
| 39> C   -20.24802982 -29.87822418 -13.42643482
| 40> C   -21.01244015 -29.68675715 -12.12028522
| 41> C   -21.10231430 -28.19138834 -11.78072997
| 42> C   -21.70232904 -27.41558681 -12.96876259
| 43> C   -21.66140766 -25.88241073 -12.80739624
| 44> O   -20.20835131 -31.22716238 -13.81437991
| 45> O   -21.92904355 -28.15256148 -10.62975961
| 46> O   -20.97991695 -27.70192363 -14.15937767
| 47> O   -22.77653148 -25.24751226 -13.36606348
| 48> H   -20.33214072 -29.07881304 -15.43488953
| 49> H   -19.22491807 -29.49097279 -13.29837400
| 50> H   -20.09941480 -27.80617072 -11.54912819
| 51> H   -22.74632211 -27.74523184 -13.07876986
| 52> H   -21.55295222 -25.62145610 -11.75030873
| 53> H   -20.79012911 -25.52129714 -13.35930845
| 54> H   -20.03662558 -31.74168026 -13.01419977
| 55> H   -23.54207469 -25.36146652 -12.77596182
| 56> C   -24.15520685 -30.63698454 -18.31637789
| 57> C   -22.68637390 -31.07495247 -18.15403303
| 58> C   -22.31026040 -31.04948029 -16.67207675
| 59> C   -22.60607553 -29.64311268 -16.12175569
| 60> C   -24.11135390 -29.36948862 -16.31177040
| 61> C   -24.48969976 -27.98391597 -15.79772865
| 62> O   -22.53977925 -32.37046100 -18.68524824
| 63> O   -20.95496429 -31.41803719 -16.58155759
| 64> O   -22.22520790 -29.56530163 -14.75774504
| 65> O   -24.38339124 -29.39717579 -17.71300226
| 66> H   -24.38537882 -30.49429981 -19.37850811
| 67> H   -22.03846227 -30.36868887 -18.69430737
| 68> H   -22.94044858 -31.77030854 -16.13032076
| 69> H   -22.04725750 -28.89811598 -16.70501015
| 70> H   -24.70980679 -30.13518251 -15.80688601
| 71> H   -21.67367771 -32.68530307 -18.39002176
| 72> H   -20.70139390 -31.45093791 -15.64404953
| 73> C   -28.25009925 -33.93027448 -18.16273151
| 74> C   -26.92505776 -34.69013381 -18.30996432
| 75> C   -25.78962535 -33.76572560 -17.87007587
| 76> C   -25.83356574 -32.38956802 -18.55714392
| 77> C   -27.26380310 -31.81397752 -18.57575789
| 78> C   -27.49368448 -30.65719221 -19.56110636
| 79> O   -26.96788797 -35.85213876 -17.52505429
| 80> O   -24.56932566 -34.41721469 -18.12307742
| 81> O   -24.97317941 -31.61512087 -17.74074435
| 82> O   -28.21905021 -32.79381847 -18.97934768
| 83> O   -26.58080619 -29.60444739 -19.47785203
| 84> H   -29.08430101 -34.54377269 -18.53465782
| 85> H   -26.79231464 -34.94419531 -19.37314808
| 86> H   -25.90429996 -33.57944888 -16.79007491
| 87> H   -25.44011647 -32.47339710 -19.57896760
| 88> H   -27.47368504 -31.47682273 -17.55140695
| 89> H   -27.42432615 -31.04808715 -20.58056317
| 90> H   -28.51960876 -30.29738818 -19.39603364
| 91> H   -26.05657575 -36.16760357 -17.45795977
| 92> H   -23.87673729 -33.73772531 -18.20493385
| 93> H   -26.43952998 -29.36017533 -18.55288825
| 94> C   -31.16088490 -32.04472196 -14.22222129
| 95> C   -30.73747061 -33.49679500 -13.95945717
| 96> C   -29.48236616 -33.77494803 -14.78034779
| 97> C   -29.71511346 -33.47398689 -16.27279968
| 98> C   -30.30555471 -32.05861687 -16.43950114
| 99> C   -30.82614024 -31.72134745 -17.83740469
|100> O   -30.51559888 -33.67042003 -12.58310296
|101> O   -29.11166230 -35.11664776 -14.59030325
|102> O   -28.41492538 -33.62241433 -16.81462975
|103> O   -31.42172720 -31.86496355 -15.58016827
|104> O   -30.71566671 -30.32290030 -18.00202688
|105> H   -32.11532703 -31.84089390 -13.72207467
|106> H   -31.54505980 -34.16240263 -14.30136278
|107> H   -28.68162780 -33.10446582 -14.43066244
|108> H   -30.40020408 -34.22023297 -16.70267455
|109> H   -29.51425087 -31.34083933 -16.18773750
|110> H   -30.24106075 -32.23985174 -18.60264390
|111> H   -31.87442499 -32.04052811 -17.88803514
|112> H   -29.98879138 -34.47507461 -12.48545218
|113> H   -28.44176973 -35.32917252 -15.25611837
|114> H   -31.15299818 -30.07117123 -18.82221595
|115> C   -30.35948232 -27.84260779 -11.23249135
|116> C   -31.31768612 -29.01569358 -10.94145279
|117> C   -30.76731505 -30.29100142 -11.58222571
|118> C   -30.61580303 -30.02290552 -13.09116199
|119> C   -29.61640609 -28.86364623 -13.24767856
|120> O   -31.46709533 -29.17409419 -9.55160649 
|121> O   -31.65351087 -31.33808396 -11.27036370
|122> O   -30.15251110 -31.17977665 -13.76167885
|123> O   -30.14799254 -27.70921295 -12.60467740
|124> H   -30.81897143 -26.89909526 -10.91583603
|125> H   -32.29254590 -28.78518142 -11.39708591
|126> H   -29.77097440 -30.50244825 -11.16592471
|127> H   -31.91516932 -30.02366906 -9.42528109 
|128> H   -31.27091909 -32.17347413 -11.58633367
|129> C   -26.55420614 -26.68577450 -7.77200786 
|130> C   -27.52412336 -27.75374189 -7.25817875 
|131> C   -28.20599429 -28.39728470 -8.46666204 
|132> C   -28.86264249 -27.34652512 -9.37653431 
|133> C   -27.92400662 -26.14569745 -9.63937484 
|134> C   -28.65961204 -24.88598314 -10.13012207
|135> O   -26.79346256 -28.70335505 -6.52385683 
|136> O   -29.13112107 -29.34039834 -7.98822387 
|137> O   -29.12447372 -28.03899217 -10.58989307
|138> O   -27.25281057 -25.69324377 -8.46682451 
|139> O   -29.46576177 -25.06508205 -11.25237259
|140> H   -26.07760366 -26.16822680 -6.92776879 
|141> H   -28.28378938 -27.27483713 -6.62235605 
|142> H   -27.43085291 -28.90426668 -9.06327552 
|143> H   -29.79703550 -27.00108852 -8.91662592 
|144> H   -27.18608953 -26.47468535 -10.38698327
|145> H   -29.31728003 -24.53833421 -9.32874317 
|146> H   -27.89991590 -24.11028011 -10.30537844
|147> H   -27.35665093 -29.48653222 -6.45364504 
|148> H   -29.90855370 -29.34442078 -8.57645579 
|149> H   -28.94802853 -25.44528430 -11.97607770
|150> C   -27.68012364 -26.64155798 -14.71307909
|151> C   -26.31061063 -26.54194886 -15.01227218
|152> N   -28.04649499 -27.95092214 -14.93106350
|153> N   -25.87177008 -27.79232568 -15.40714894
|154> C   -26.91653342 -28.68582730 -15.31136991
|155> H   -24.26335396 -27.26369852 -16.59302002
|156> H   -23.85569935 -27.75641296 -14.93480178
|157> C   -28.40645652 -25.54776294 -14.28696798
|158> C   -25.63732766 -25.34410262 -14.87017908
|159> C   -29.35979932 -28.48684467 -14.71740947
|160> H   -28.66855737 -29.15039832 -12.77283843
|161> H   -30.09945078 -27.73839738 -15.01099436
|162> H   -29.49528142 -29.36921072 -15.34600186
|163> O   -20.35501655 -30.40138360 -11.10362580
|164> H   -22.03739455 -30.06654977 -12.25487030
|165> H   -20.69038994 -30.08601380 -10.24929456
|166> N   -26.82518523 -29.93565947 -15.52350455
|167> H   -27.68233687 -30.44615873 -15.34973343
|168> C   -26.36878933 -24.24926815 -14.42457654
|169> C   -27.72337262 -24.34486542 -14.14422523
|170> H   -25.86556091 -23.30144646 -14.30578139
|171> H   -24.58386258 -25.25322523 -15.07372890
|172> H   -28.26441956 -23.47280229 -13.80859007
|173> H   -29.46052898 -25.62493202 -14.07347326
|174> *
|175> 
|176>                          ****END OF INPUT****
================================================================================

                       *****************************
                       * Geometry Optimization Run *
                       *****************************

Geometry optimization settings:
Update method            Update   .... BFGS
Choice of coordinates    CoordSys .... Z-matrix Internals
Initial Hessian          InHess   .... Almoef's Model

Convergence Tolerances:
Energy Change            TolE     ....  5.0000e-06 Eh
Max. Gradient            TolMAXG  ....  3.0000e-04 Eh/bohr
RMS Gradient             TolRMSG  ....  1.0000e-04 Eh/bohr
Max. Displacement        TolMAXD  ....  4.0000e-03 bohr
RMS Displacement         TolRMSD  ....  2.0000e-03 bohr
Strict Convergence                ....  False
------------------------------------------------------------------------------
                        ORCA OPTIMIZATION COORDINATE SETUP
------------------------------------------------------------------------------

The optimization will be done in new redundant internal coordinates
Making redundant internal coordinates   ...  (new redundants) done
Evaluating the initial hessian          ...  (Almloef) done
Evaluating the coordinates              ...  done
Calculating the B-matrix                .... done
Calculating the G-matrix                .... done
Diagonalizing the G-matrix              .... done
Small eigenvalue found = 9.348e-04
Small eigenvalue found = 1.524e-03
Small eigenvalue found = 2.790e-03
Small eigenvalue found = 3.540e-03
Small eigenvalue found = 4.081e-03
Small eigenvalue found = 4.551e-03
Small eigenvalue found = 5.187e-03
Small eigenvalue found = 6.035e-03
Small eigenvalue found = 6.441e-03
Small eigenvalue found = 7.766e-03
Small eigenvalue found = 8.104e-03
Small eigenvalue found = 8.731e-03
Small eigenvalue found = 9.774e-03
Small eigenvalue found = 1.216e-02
Small eigenvalue found = 1.264e-02
Small eigenvalue found = 1.422e-02
Small eigenvalue found = 1.669e-02
Small eigenvalue found = 1.703e-02
Small eigenvalue found = 1.841e-02
Small eigenvalue found = 1.937e-02
Small eigenvalue found = 1.996e-02
Small eigenvalue found = 2.064e-02
Small eigenvalue found = 2.121e-02
Small eigenvalue found = 2.448e-02
Small eigenvalue found = 2.539e-02
Small eigenvalue found = 2.756e-02
The first mode is                       ....  256
The number of degrees of freedom        ....  468

    -----------------------------------------------------------------
                    Redundant Internal Coordinates


    -----------------------------------------------------------------
         Definition                    Initial Value    Approx d2E/dq
    -----------------------------------------------------------------
      1. B(C   2,C   1)                  1.5391         0.361324   
      2. B(C   3,C   2)                  1.5305         0.372933   
      3. B(C   4,C   3)                  1.5383         0.362334   
      4. B(C   5,C   4)                  1.5364         0.364892   
      5. B(C   6,C   5)                  1.5302         0.373249   
      6. B(O   7,C   2)                  1.4036         0.532274   
      7. B(O   8,C   3)                  1.4042         0.531250   
      8. B(O   9,C   4)                  1.4129         0.514496   
      9. B(O  10,C   1)                  1.4035         0.532524   
     10. B(O  10,C   5)                  1.4217         0.498112   
     11. B(O  11,C   6)                  1.4169         0.506999   
     12. B(H  12,C   1)                  1.0987         0.348716   
     13. B(H  13,C   2)                  1.1005         0.346533   
     14. B(H  14,C   3)                  1.1013         0.345496   
     15. B(H  15,C   4)                  1.0985         0.349082   
     16. B(H  16,C   5)                  1.0988         0.348624   
     17. B(H  17,C   6)                  1.0954         0.353021   
     18. B(H  18,C   6)                  1.0962         0.351932   
     19. B(H  19,O   7)                  0.9666         0.507434   
     20. B(H  20,O   8)                  0.9728         0.496026   
     21. B(H  21,O  11)                  0.9646         0.511327   
     22. B(C  23,C  22)                  1.5382         0.362428   
     23. B(C  24,C  23)                  1.5255         0.379866   
     24. B(C  25,C  24)                  1.5361         0.365340   
     25. B(C  26,C  25)                  1.5406         0.359368   
     26. B(C  27,C  26)                  1.5422         0.357218   
     27. B(O  28,C  23)                  1.4042         0.531201   
     28. B(O  29,C  25)                  1.4176         0.505554   
     29. B(O  29,C   1)                  1.3906         0.558358   
     30. B(O  30,C  26)                  1.4218         0.497952   
     31. B(O  30,C  22)                  1.3980         0.543466   
     32. B(O  31,C  27)                  1.3995         0.540329   
     33. B(H  32,C  22)                  1.0974         0.350437   
     34. B(H  33,C  23)                  1.1014         0.345308   
     35. B(H  34,C  25)                  1.0990         0.348366   
     36. B(H  35,C  26)                  1.1003         0.346712   
     37. B(H  36,C  27)                  1.0942         0.354575   
     38. B(H  37,C  27)                  1.0928         0.356460   
     39. B(H  38,O  28)                  0.9667         0.507317   
     40. B(H  39,H  21)                  2.3423         0.000693   
     41. B(H  39,O  31)                  0.9733         0.495210   
     42. B(C  41,C  40)                  1.5413         0.358369   
     43. B(C  42,C  41)                  1.5292         0.374741   
     44. B(C  43,C  42)                  1.5389         0.361551   
     45. B(C  44,C  43)                  1.5417         0.357858   
     46. B(C  45,C  44)                  1.5255         0.379781   
     47. B(O  46,C  41)                  1.4078         0.524093   
     48. B(O  47,C  42)                  1.4074         0.524891   
     49. B(O  48,C  43)                  1.4183         0.504299   
     50. B(O  48,C  22)                  1.4027         0.534164   
     51. B(O  49,C  44)                  1.4277         0.487289   
     52. B(O  49,C  40)                  1.3976         0.544211   
     53. B(H  50,C  40)                  1.0961         0.352106   
     54. B(H  51,C  41)                  1.1002         0.346825   
     55. B(H  52,C  42)                  1.1001         0.346978   
     56. B(H  53,C  43)                  1.0989         0.348574   
     57. B(H  54,C  44)                  1.0951         0.353359   
     58. B(H  55,O  46)                  0.9677         0.505480   
     59. B(H  56,O  47)                  0.9718         0.497986   
     60. B(C  58,C  57)                  1.5345         0.367402   
     61. B(C  59,C  58)                  1.5288         0.375221   
     62. B(C  60,C  59)                  1.5388         0.361735   
     63. B(C  61,C  60)                  1.5418         0.357691   
     64. B(C  62,C  61)                  1.5369         0.364291   
     65. B(O  63,C  58)                  1.4029         0.533665   
     66. B(O  64,C  59)                  1.4063         0.527141   
     67. B(O  65,C  60)                  1.4165         0.507642   
     68. B(O  65,C  40)                  1.3990         0.541410   
     69. B(O  66,C  61)                  1.4267         0.489018   
     70. B(O  66,C  57)                  1.3998         0.539867   
     71. B(O  67,C  62)                  1.3959         0.547589   
     72. B(H  68,C  57)                  1.1003         0.346763   
     73. B(H  69,C  58)                  1.1011         0.345650   
     74. B(H  70,C  59)                  1.1019         0.344658   
     75. B(H  71,C  60)                  1.0982         0.349467   
     76. B(H  72,C  61)                  1.0986         0.348845   
     77. B(H  73,C  62)                  1.0940         0.354808   
     78. B(H  74,C  62)                  1.0996         0.347559   
     79. B(H  75,O  63)                  0.9667         0.507314   
     80. B(H  76,O  64)                  0.9737         0.494441   
     81. B(H  77,O  67)                  0.9671         0.506663   
     82. B(C  79,C  78)                  1.5352         0.366505   
     83. B(C  80,C  79)                  1.5253         0.380091   
     84. B(C  81,C  80)                  1.5402         0.359859   
     85. B(C  82,C  81)                  1.5426         0.356648   
     86. B(C  83,C  82)                  1.5293         0.374476   
     87. B(O  84,C  79)                  1.4049         0.529804   
     88. B(O  85,C  80)                  1.4049         0.529823   
     89. B(O  86,C  81)                  1.4164         0.507933   
     90. B(O  86,C  57)                  1.3926         0.554286   
     91. B(O  87,C  82)                  1.4219         0.497718   
     92. B(O  87,C  78)                  1.3944         0.550610   
     93. B(O  88,C  83)                  1.4124         0.515335   
     94. B(H  89,C  78)                  1.0967         0.351403   
     95. B(H  90,C  79)                  1.1010         0.345878   
     96. B(H  91,C  80)                  1.1014         0.345373   
     97. B(H  92,C  81)                  1.1005         0.346518   
     98. B(H  93,C  82)                  1.0976         0.350170   
     99. B(H  94,C  83)                  1.0940         0.354895   
    100. B(H  95,C  83)                  1.0970         0.350998   
    101. B(H  96,O  84)                  0.9667         0.507293   
    102. B(H  97,O  85)                  0.9681         0.504698   
    103. B(H  98,O  88)                  0.9630         0.514289   
    104. B(C 100,C  99)                  1.5424         0.356943   
    105. B(C 101,C 100)                  1.5297         0.374020   
    106. B(C 102,C 101)                  1.5400         0.360048   
    107. B(C 102,H   0)                  1.0986         0.348882   
    108. B(C 103,C 102)                  1.5386         0.362007   
    109. B(O 104,C 100)                  1.4068         0.526104   
    110. B(O 105,C 101)                  1.4068         0.526176   
    111. B(O 106,C 102)                  1.4151         0.510256   
    112. B(O 106,C  78)                  1.4061         0.527507   
    113. B(O 107,C 103)                  1.4243         0.493270   
    114. B(O 107,C  99)                  1.3948         0.549852   
    115. B(H 108,C  99)                  1.0962         0.352013   
    116. B(H 109,C 100)                  1.1005         0.346481   
    117. B(H 110,C 101)                  1.1003         0.346700   
    118. B(H 111,O 104)                  0.9688         0.503480   
    119. B(H 112,O 105)                  0.9716         0.498185   
    120. B(C 113,O   9)                  1.3935         0.552409   
    121. B(C 114,C 113)                  1.5314         0.371601   
    122. B(C 115,C 114)                  1.5296         0.374191   
    123. B(C 116,C 115)                  1.5373         0.363751   
    124. B(C 117,C 116)                  1.5466         0.351416   
    125. B(C 118,C 117)                  1.5391         0.361293   
    126. B(O 119,C 114)                  1.4053         0.529018   
    127. B(O 120,C 115)                  1.4051         0.529456   
    128. B(O 121,C  99)                  1.4060         0.527715   
    129. B(O 121,C 116)                  1.4214         0.498677   
    130. B(O 122,C 117)                  1.4248         0.492417   
    131. B(O 122,C 113)                  1.3985         0.542298   
    132. B(O 123,C 118)                  1.3933         0.552770   
    133. B(H 124,C 113)                  1.0990         0.348421   
    134. B(H 125,C 114)                  1.1003         0.346698   
    135. B(H 126,C 115)                  1.1017         0.344904   
    136. B(H 127,C 116)                  1.0972         0.350650   
    137. B(H 128,C 117)                  1.1008         0.346143   
    138. B(H 129,C 118)                  1.0934         0.355587   
    139. B(H 130,C 118)                  1.0998         0.347362   
    140. B(H 131,O 119)                  0.9672         0.506382   
    141. B(H 132,O 120)                  0.9749         0.492256   
    142. B(H 133,O 123)                  0.9677         0.505543   
    143. B(C 135,C 134)                  1.4053         0.590542   
    144. B(N 136,C 134)                  1.3770         0.586931   
    145. B(N 137,C 135)                  1.3827         0.574737   
    146. B(N 137,C  45)                  1.4489         0.450679   
    147. B(C 138,N 137)                  1.3781         0.584689   
    148. B(C 138,N 136)                  1.4005         0.538330   
    149. B(H 139,C  45)                  1.0966         0.351531   
    150. B(H 140,H  16)                  4.3937         0.000000   
    151. B(H 140,C  45)                  1.0947         0.353942   
    152. B(C 141,C 134)                  1.3804         0.647213   
    153. B(C 142,C 135)                  1.3814         0.644791   
    154. B(C 143,N 136)                  1.4344         0.475300   
    155. B(C 143,C 103)                  1.5388         0.361678   
    156. B(H 144,C 103)                  1.0982         0.349371   
    157. B(H 145,C 143)                  1.0925         0.356872   
    158. B(H 146,C 143)                  1.0918         0.357711   
    159. B(O 147,C  24)                  1.4059         0.527890   
    160. B(H 148,C  24)                  1.1013         0.345443   
    161. B(H 149,O 147)                  0.9705         0.500334   
    162. B(N 150,H  77)                  3.1076         0.000195   
    163. B(N 150,C 138)                  1.2710         0.866447   
    164. B(H 151,H  93)                  2.2042         0.001150   
    165. B(H 151,N 150)                  1.0127         0.428473   
    166. B(C 152,C 142)                  1.3901         0.624664   
    167. B(C 153,C 152)                  1.3866         0.632673   
    168. B(C 153,C 141)                  1.3907         0.623278   
    169. B(H 154,C 152)                  1.0797         0.374009   
    170. B(H 155,O  31)                  2.4865         0.001908   
    171. B(H 155,C 142)                  1.0768         0.378004   
    172. B(H 156,C 153)                  1.0798         0.373907   
    173. B(H 157,H 133)                  2.1666         0.001321   
    174. B(H 157,C 141)                  1.0782         0.375996   
    175. A(O  10,C   1,H  12)          105.7185         0.340049   
    176. A(C   2,C   1,O  10)          110.5694         0.381610   
    177. A(C   2,C   1,O  29)          107.0917         0.384764   
    178. A(O  10,C   1,O  29)          112.0300         0.409245   
    179. A(C   2,C   1,H  12)          109.9456         0.320858   
    180. A(H  12,C   1,O  29)          111.5249         0.342755   
    181. A(C   1,C   2,C   3)          108.8506         0.361183   
    182. A(C   1,C   2,H  13)          108.8610         0.320528   
    183. A(O   7,C   2,H  13)          110.6809         0.339665   
    184. A(C   1,C   2,O   7)          108.0363         0.381578   
    185. A(C   3,C   2,O   7)          111.5345         0.383680   
    186. A(C   3,C   2,H  13)          108.8221         0.322192   
    187. A(C   2,C   3,H  14)          108.4222         0.322033   
    188. A(C   4,C   3,H  14)          107.5792         0.320518   
    189. A(C   4,C   3,O   8)          111.5629         0.381636   
    190. A(C   2,C   3,C   4)          110.3702         0.361355   
    191. A(O   8,C   3,H  14)          110.4859         0.339386   
    192. A(C   2,C   3,O   8)          108.3791         0.383552   
    193. A(O   9,C   4,H  15)          111.0483         0.338159   
    194. A(C   3,C   4,H  15)          109.4626         0.321059   
    195. A(C   5,C   4,H  15)          109.7918         0.321429   
    196. A(C   5,C   4,O   9)          110.9999         0.379984   
    197. A(C   3,C   4,C   5)          109.5517         0.360014   
    198. A(C   3,C   4,O   9)          105.9034         0.379521   
    199. A(C   4,C   5,H  16)          107.5565         0.321360   
    200. A(C   6,C   5,O  10)          108.5090         0.379345   
    201. A(C   4,C   5,O  10)          109.2986         0.377860   
    202. A(O  10,C   5,H  16)          109.4460         0.336267   
    203. A(C   4,C   5,C   6)          114.4949         0.361841   
    204. A(C   6,C   5,H  16)          107.4419         0.322554   
    205. A(C   5,C   6,H  17)          110.3469         0.323217   
    206. A(H  17,C   6,H  18)          109.3693         0.288894   
    207. A(C   5,C   6,O  11)          107.5274         0.380509   
    208. A(O  11,C   6,H  17)          110.3386         0.337964   
    209. A(O  11,C   6,H  18)          110.9315         0.337790   
    210. A(C   5,C   6,H  18)          108.2914         0.323054   
    211. A(C   2,O   7,H  19)          106.6566         0.359080   
    212. A(C   3,O   8,H  20)          108.5686         0.357577   
    213. A(C   4,O   9,C 113)          119.1099         0.405988   
    214. A(C   1,O  10,C   5)          112.1334         0.401075   
    215. A(C   6,O  11,H  21)          109.8808         0.356585   
    216. A(C  23,C  22,H  32)          109.1860         0.321277   
    217. A(H  32,C  22,O  48)          111.0774         0.340504   
    218. A(C  23,C  22,O  30)          110.2509         0.383163   
    219. A(O  30,C  22,H  32)          104.8000         0.341488   
    220. A(O  30,C  22,O  48)          111.8442         0.407513   
    221. A(C  23,C  22,O  48)          109.5763         0.382016   
    222. A(O  28,C  23,H  33)          110.0986         0.339350   
    223. A(C  22,C  23,C  24)          108.4693         0.362509   
    224. A(C  22,C  23,H  33)          108.2159         0.320503   
    225. A(C  22,C  23,O  28)          109.4067         0.381647   
    226. A(C  24,C  23,H  33)          108.7714         0.322978   
    227. A(C  24,C  23,O  28)          111.7957         0.384776   
    228. A(C  23,C  24,C  25)          109.9246         0.363005   
    229. A(O 147,C  24,H 148)          110.3822         0.339018   
    230. A(C  25,C  24,O 147)          111.2446         0.381763   
    231. A(C  23,C  24,O 147)          108.7269         0.384358   
    232. A(C  25,C  24,H 148)          107.9555         0.320943   
    233. A(C  23,C  24,H 148)          108.5686         0.322999   
    234. A(C  24,C  25,H  34)          109.5370         0.321386   
    235. A(C  26,C  25,H  34)          109.9633         0.320520   
    236. A(O  29,C  25,H  34)          110.5775         0.337056   
    237. A(C  26,C  25,O  29)          112.6549         0.377833   
    238. A(C  24,C  25,O  29)          103.9016         0.378912   
    239. A(C  24,C  25,C  26)          110.0329         0.359586   
    240. A(C  25,C  26,H  35)          107.2040         0.320271   
    241. A(C  25,C  26,O  30)          110.2719         0.376844   
    242. A(C  27,C  26,O  30)          105.9238         0.376453   
    243. A(C  25,C  26,C  27)          114.1808         0.358212   
    244. A(O  30,C  26,H  35)          109.7575         0.335941   
    245. A(C  27,C  26,H  35)          109.4801         0.319957   
    246. A(C  26,C  27,H  36)          109.9261         0.321132   
    247. A(H  36,C  27,H  37)          109.2741         0.289672   
    248. A(C  26,C  27,O  31)          112.8356         0.381816   
    249. A(C  26,C  27,H  37)          107.2677         0.321411   
    250. A(O  31,C  27,H  36)          110.8807         0.341828   
    251. A(O  31,C  27,H  37)          106.4849         0.342132   
    252. A(C  23,O  28,H  38)          106.7164         0.358943   
    253. A(C   1,O  29,C  25)          119.7441         0.405499   
    254. A(C  22,O  30,C  26)          115.2113         0.402492   
    255. A(C  27,O  31,H  39)          109.3647         0.358509   
    256. A(H  50,C  40,O  65)          111.5272         0.341543   
    257. A(O  49,C  40,O  65)          110.3123         0.408585   
    258. A(C  41,C  40,O  65)          108.3718         0.382162   
    259. A(O  49,C  40,H  50)          105.5797         0.341838   
    260. A(C  41,C  40,H  50)          109.8262         0.320934   
    261. A(C  41,C  40,O  49)          111.2349         0.382505   
    262. A(O  46,C  41,H  51)          110.1267         0.338836   
    263. A(C  42,C  41,H  51)          108.6850         0.322491   
    264. A(C  40,C  41,H  51)          109.0911         0.320142   
    265. A(C  42,C  41,O  46)          110.8178         0.382971   
    266. A(C  40,C  41,C  42)          109.3745         0.360975   
    267. A(C  40,C  41,O  46)          108.7214         0.380013   
    268. A(O  47,C  42,H  52)          110.3876         0.338947   
    269. A(C  43,C  42,H  52)          108.2150         0.320629   
    270. A(C  41,C  42,H  52)          108.9926         0.322515   
    271. A(C  43,C  42,O  47)          113.6668         0.380697   
    272. A(C  41,C  42,C  43)          108.3313         0.361520   
    273. A(C  41,C  42,O  47)          107.1467         0.383072   
    274. A(O  48,C  43,H  53)          109.6761         0.336950   
    275. A(C  44,C  43,H  53)          108.1065         0.320331   
    276. A(C  42,C  43,H  53)          109.3914         0.320869   
    277. A(C  44,C  43,O  48)          111.7763         0.377395   
    278. A(C  42,C  43,O  48)          110.0249         0.378066   
    279. A(C  42,C  43,C  44)          107.8066         0.358691   
    280. A(O  49,C  44,H  54)          109.5604         0.335793   
    281. A(C  45,C  44,H  54)          110.1304         0.324190   
    282. A(C  43,C  44,H  54)          110.6488         0.321046   
    283. A(C  45,C  44,O  49)          107.5225         0.379041   
    284. A(C  43,C  44,O  49)          107.6723         0.375164   
    285. A(C  43,C  44,C  45)          111.2122         0.361711   
    286. A(N 137,C  45,H 139)          107.7912         0.331184   
    287. A(C  44,C  45,H 140)          108.1040         0.324278   
    288. A(N 137,C  45,H 140)          108.2076         0.331559   
    289. A(C  44,C  45,H 139)          107.5158         0.323914   
    290. A(C  44,C  45,N 137)          116.5835         0.373959   
    291. A(H 139,C  45,H 140)          108.4010         0.288960   
    292. A(C  41,O  46,H  55)          106.1095         0.357900   
    293. A(C  42,O  47,H  56)          108.7955         0.357085   
    294. A(C  22,O  48,C  43)          115.2830         0.402166   
    295. A(C  40,O  49,C  44)          114.1939         0.401056   
    296. A(O  66,C  57,H  68)          105.8018         0.340508   
    297. A(C  58,C  57,H  68)          110.2512         0.321439   
    298. A(C  58,C  57,O  66)          109.0805         0.383628   
    299. A(H  68,C  57,O  86)          111.1468         0.342013   
    300. A(O  66,C  57,O  86)          112.8236         0.409707   
    301. A(C  58,C  57,O  86)          107.7310         0.385391   
    302. A(C  59,C  58,O  63)          111.2550         0.384263   
    303. A(C  57,C  58,O  63)          109.2748         0.382859   
    304. A(C  57,C  58,C  59)          108.3175         0.362591   
    305. A(O  63,C  58,H  69)          110.6569         0.339669   
    306. A(C  59,C  58,H  69)          109.1348         0.322380   
    307. A(C  57,C  58,H  69)          108.1182         0.321270   
    308. A(C  60,C  59,O  64)          111.0246         0.381013   
    309. A(C  58,C  59,O  64)          108.2153         0.383442   
    310. A(C  58,C  59,C  60)          113.0218         0.361630   
    311. A(O  64,C  59,H  70)          110.1787         0.338809   
    312. A(C  60,C  59,H  70)          106.4672         0.320304   
    313. A(C  58,C  59,H  70)          107.8745         0.322228   
    314. A(C  61,C  60,O  65)          111.4869         0.377796   
    315. A(C  59,C  60,O  65)          102.3724         0.378532   
    316. A(C  59,C  60,C  61)          111.4535         0.358694   
    317. A(O  65,C  60,H  71)          111.1245         0.337465   
    318. A(C  61,C  60,H  71)          110.4637         0.320441   
    319. A(C  59,C  60,H  71)          109.6923         0.321030   
    320. A(C  62,C  61,O  66)          103.6166         0.376551   
    321. A(C  60,C  61,O  66)          111.5995         0.375364   
    322. A(C  60,C  61,C  62)          115.3083         0.359124   
    323. A(O  66,C  61,H  72)          110.2800         0.335273   
    324. A(C  62,C  61,H  72)          109.7689         0.321307   
    325. A(C  60,C  61,H  72)          106.2912         0.320347   
    326. A(C  61,C  62,O  67)          115.5692         0.384009   
    327. A(H  73,C  62,H  74)          108.4173         0.288557   
    328. A(C  61,C  62,H  74)          106.8333         0.321112   
    329. A(O  67,C  62,H  73)          106.4739         0.342631   
    330. A(C  61,C  62,H  73)          108.6039         0.322200   
    331. A(O  67,C  62,H  74)          110.7572         0.341449   
    332. A(C  58,O  63,H  75)          106.2808         0.359226   
    333. A(C  59,O  64,H  76)          108.0029         0.356911   
    334. A(C  40,O  65,C  60)          120.0162         0.403592   
    335. A(C  57,O  66,C  61)          114.0425         0.400741   
    336. A(C  62,O  67,H  77)          110.0648         0.360727   
    337. A(H  89,C  78,O 106)          111.1274         0.339947   
    338. A(O  87,C  78,O 106)          111.9517         0.407550   
    339. A(C  79,C  78,O 106)          109.1465         0.381926   
    340. A(O  87,C  78,H  89)          104.9144         0.342393   
    341. A(C  79,C  78,H  89)          109.7415         0.322011   
    342. A(C  79,C  78,O  87)          109.8897         0.384782   
    343. A(O  84,C  79,H  90)          110.2044         0.339294   
    344. A(C  80,C  79,H  90)          109.0388         0.323097   
    345. A(C  78,C  79,H  90)          108.4433         0.321176   
    346. A(C  80,C  79,O  84)          112.0097         0.384640   
    347. A(C  78,C  79,O  84)          109.1555         0.382214   
    348. A(C  78,C  79,C  80)          107.8977         0.363239   
    349. A(O  85,C  80,H  91)          110.2796         0.339214   
    350. A(C  81,C  80,H  91)          107.3719         0.320140   
    351. A(C  79,C  80,H  91)          108.4431         0.323019   
    352. A(C  81,C  80,O  85)          110.9513         0.381004   
    353. A(C  79,C  80,O  85)          108.5712         0.384642   
    354. A(C  79,C  80,C  81)          111.1939         0.362105   
    355. A(O  86,C  81,H  92)          110.5474         0.337021   
    356. A(C  82,C  81,H  92)          109.9797         0.319844   
    357. A(C  80,C  81,H  92)          109.8825         0.320313   
    358. A(C  82,C  81,O  86)          113.9642         0.377643   
    359. A(C  80,C  81,O  86)          102.2100         0.378229   
    360. A(C  80,C  81,C  82)          109.9891         0.358198   
    361. A(O  87,C  82,H  93)          109.7695         0.336470   
    362. A(C  83,C  82,H  93)          108.1104         0.322962   
    363. A(C  81,C  82,H  93)          107.4141         0.320393   
    364. A(C  83,C  82,O  87)          104.7837         0.379508   
    365. A(C  81,C  82,O  87)          111.1067         0.376319   
    366. A(C  81,C  82,C  83)          115.5567         0.360635   
    367. A(H  94,C  83,H  95)          109.9314         0.289013   
    368. A(O  88,C  83,H  95)          110.9437         0.338559   
    369. A(C  82,C  83,H  95)          107.6566         0.323087   
    370. A(O  88,C  83,H  94)          110.2377         0.339184   
    371. A(C  82,C  83,H  94)          110.6594         0.323672   
    372. A(C  82,C  83,O  88)          107.3531         0.381804   
    373. A(C  79,O  84,H  96)          106.7318         0.358779   
    374. A(C  80,O  85,H  97)          107.4098         0.358468   
    375. A(C  57,O  86,C  81)          120.1419         0.405311   
    376. A(C  78,O  87,C  82)          115.0971         0.403386   
    377. A(C  83,O  88,H  98)          108.8182         0.357926   
    378. A(H 108,C  99,O 121)          110.8792         0.340068   
    379. A(O 107,C  99,O 121)          109.2574         0.407479   
    380. A(C 100,C  99,O 121)          110.6848         0.380204   
    381. A(O 107,C  99,H 108)          105.3926         0.342414   
    382. A(C 100,C  99,H 108)          109.8597         0.320711   
    383. A(C 100,C  99,O 107)          110.6448         0.382925   
    384. A(O 104,C 100,H 109)          109.7880         0.338996   
    385. A(C 101,C 100,H 109)          108.6580         0.322337   
    386. A(C  99,C 100,H 109)          108.2334         0.319882   
    387. A(C 101,C 100,O 104)          110.9888         0.383097   
    388. A(C  99,C 100,O 104)          109.7571         0.380003   
    389. A(C  99,C 100,C 101)          109.3613         0.360611   
    390. A(O 105,C 101,H 110)          110.0911         0.339040   
    391. A(C 102,C 101,H 110)          108.3652         0.320368   
    392. A(C 100,C 101,H 110)          109.1184         0.322370   
    393. A(C 102,C 101,O 105)          114.1270         0.380583   
    394. A(C 100,C 101,O 105)          107.5195         0.383106   
    395. A(C 100,C 101,C 102)          107.4994         0.361144   
    396. A(C 103,C 102,O 106)          110.7998         0.378918   
    397. A(C 101,C 102,O 106)          110.7411         0.378562   
    398. A(H   0,C 102,O 106)          109.8163         0.337660   
    399. A(C 101,C 102,C 103)          107.1424         0.359141   
    400. A(H   0,C 102,C 103)          108.5360         0.320982   
    401. A(H   0,C 102,C 101)          109.7424         0.320697   
    402. A(C 102,C 103,O 107)          108.8043         0.376705   
    403. A(O 107,C 103,H 144)          109.7884         0.335840   
    404. A(C 102,C 103,H 144)          108.6569         0.321055   
    405. A(O 107,C 103,C 143)          107.1542         0.376646   
    406. A(C 102,C 103,C 143)          112.9533         0.359417   
    407. A(C 143,C 103,H 144)          109.4492         0.321008   
    408. A(C 100,O 104,H 111)          106.0629         0.357892   
    409. A(C 101,O 105,H 112)          108.6511         0.357258   
    410. A(C  78,O 106,C 102)          115.0428         0.402109   
    411. A(C  99,O 107,C 103)          115.0367         0.402651   
    412. A(O 122,C 113,H 124)          105.3117         0.341036   
    413. A(C 114,C 113,H 124)          110.2019         0.322289   
    414. A(O   9,C 113,H 124)          111.5145         0.342092   
    415. A(C 114,C 113,O 122)          110.1960         0.384688   
    416. A(O   9,C 113,O 122)          112.3015         0.409787   
    417. A(O   9,C 113,C 114)          107.3453         0.385927   
    418. A(O 119,C 114,H 125)          110.5560         0.339345   
    419. A(C 115,C 114,H 125)          109.3839         0.322395   
    420. A(C 113,C 114,H 125)          109.1242         0.322028   
    421. A(C 115,C 114,O 119)          111.1203         0.383496   
    422. A(C 113,C 114,O 119)          108.4975         0.383033   
    423. A(C 113,C 114,C 115)          108.0988         0.363125   
    424. A(O 120,C 115,H 126)          109.8013         0.339098   
    425. A(C 116,C 115,H 126)          107.1307         0.320632   
    426. A(C 114,C 115,H 126)          107.9275         0.322121   
    427. A(C 116,C 115,O 120)          112.2774         0.381670   
    428. A(C 114,C 115,O 120)          107.8725         0.383551   
    429. A(C 114,C 115,C 116)          111.7450         0.361803   
    430. A(O 121,C 116,H 127)          110.7514         0.336655   
    431. A(C 117,C 116,H 127)          110.0973         0.319692   
    432. A(C 115,C 116,H 127)          109.3213         0.321500   
    433. A(C 117,C 116,O 121)          110.1802         0.375484   
    434. A(C 115,C 116,O 121)          104.5334         0.377730   
    435. A(C 115,C 116,C 117)          111.8421         0.357954   
    436. A(O 122,C 117,H 128)          109.7575         0.335226   
    437. A(C 118,C 117,H 128)          110.3934         0.320465   
    438. A(C 116,C 117,H 128)          106.8706         0.319017   
    439. A(C 118,C 117,O 122)          103.1582         0.376464   
    440. A(C 116,C 117,O 122)          113.1155         0.374666   
    441. A(C 116,C 117,C 118)          113.5531         0.357541   
    442. A(C 117,C 118,H 129)          108.3011         0.321879   
    443. A(C 117,C 118,O 123)          115.3494         0.384086   
    444. A(H 129,C 118,H 130)          107.9394         0.288630   
    445. A(O 123,C 118,H 130)          111.2209         0.341955   
    446. A(C 117,C 118,H 130)          107.3342         0.320649   
    447. A(O 123,C 118,H 129)          106.4501         0.343299   
    448. A(C 114,O 119,H 131)          106.4006         0.358579   
    449. A(C 115,O 120,H 132)          108.8063         0.356908   
    450. A(C  99,O 121,C 116)          118.9420         0.400515   
    451. A(C 113,O 122,C 117)          114.7590         0.401548   
    452. A(C 118,O 123,H 133)          110.0799         0.361170   
    453. A(N 136,C 134,C 141)          131.4766         0.430309   
    454. A(C 135,C 134,C 141)          121.4875         0.433619   
    455. A(C 135,C 134,N 136)          107.0359         0.423304   
    456. A(N 137,C 135,C 142)          131.2085         0.428403   
    457. A(C 134,C 135,C 142)          120.9651         0.433327   
    458. A(C 134,C 135,N 137)          107.8173         0.421719   
    459. A(C 138,N 136,C 143)          125.6666         0.398540   
    460. A(C 134,N 136,C 143)          125.1184         0.404655   
    461. A(C 134,N 136,C 138)          109.1034         0.413678   
    462. A(C 135,N 137,C 138)          109.0172         0.418238   
    463. A(C  45,N 137,C 138)          131.0078         0.400608   
    464. A(C  45,N 137,C 135)          119.9525         0.399399   
    465. A(N 137,C 138,N 150)          124.8543         0.450293   
    466. A(N 136,C 138,N 150)          128.2649         0.443600   
    467. A(N 136,C 138,N 137)          106.8771         0.413397   
    468. A(C 153,C 141,H 157)          121.4508         0.355820   
    469. A(C 134,C 141,H 157)          121.2512         0.358106   
    470. A(C 134,C 141,C 153)          117.2981         0.437853   
    471. A(C 152,C 142,H 155)          120.5930         0.356276   
    472. A(C 135,C 142,H 155)          122.0434         0.358202   
    473. A(C 135,C 142,C 152)          117.3522         0.437733   
    474. A(H 145,C 143,H 146)          108.3574         0.290125   
    475. A(N 136,C 143,H 146)          109.2564         0.335086   
    476. A(C 103,C 143,H 146)          109.3479         0.322250   
    477. A(N 136,C 143,H 145)          108.8982         0.334955   
    478. A(C 103,C 143,H 145)          108.1515         0.322126   
    479. A(C 103,C 143,N 136)          112.7318         0.374240   
    480. A(C  24,O 147,H 149)          108.0485         0.357717   
    481. A(C 138,N 150,H 151)          113.9690         0.379243   
    482. A(C 153,C 152,H 154)          119.5780         0.356404   
    483. A(C 142,C 152,H 154)          118.7793         0.355634   
    484. A(C 142,C 152,C 153)          121.6397         0.436238   
    485. A(C 152,C 153,H 156)          119.7807         0.356388   
    486. A(C 141,C 153,H 156)          118.9717         0.355484   
    487. A(C 141,C 153,C 152)          121.2476         0.436064   
    488. D(C   3,C   2,C   1,O  10)     57.3899         0.010469   
    489. D(O   7,C   2,C   1,O  10)    178.6605         0.010469   
    490. D(C   3,C   2,C   1,H  12)    173.7497         0.010469   
    491. D(C   4,C   3,C   2,O   7)   -171.3869         0.011108   
    492. D(O   8,C   3,C   2,C   1)   -174.7241         0.011108   
    493. D(C   4,C   3,C   2,C   1)    -52.2799         0.011108   
    494. D(C   5,C   4,C   3,C   2)     53.0328         0.010523   
    495. D(O   9,C   4,C   3,C   2)    172.8091         0.010523   
    496. D(C   5,C   4,C   3,O   8)    173.5887         0.010523   
    497. D(C   6,C   5,C   4,O   9)     64.1264         0.010662   
    498. D(O  10,C   5,C   4,C   3)    -57.3225         0.010662   
    499. D(C   6,C   5,C   4,C   3)   -179.2714         0.010662   
    500. D(O  11,C   6,C   5,O  10)    109.4230         0.011125   
    501. D(H  17,C   6,C   5,C   4)     -7.8092         0.011125   
    502. D(O  11,C   6,C   5,C   4)   -128.1981         0.011125   
    503. D(H  19,O   7,C   2,C   1)   -166.9245         0.022508   
    504. D(H  19,O   7,C   2,C   3)    -47.3345         0.022508   
    505. D(H  20,O   8,C   3,C   4)     48.2630         0.022417   
    506. D(H  20,O   8,C   3,C   2)    169.9780         0.022417   
    507. D(C 113,O   9,C   4,C   3)    126.7287         0.020969   
    508. D(C 113,O   9,C   4,C   5)   -114.4485         0.020969   
    509. D(C   1,O  10,C   5,C   6)   -170.2105         0.019611   
    510. D(C   1,O  10,C   5,C   4)     64.3048         0.019611   
    511. D(C   5,O  10,C   1,C   2)    -64.7197         0.022530   
    512. D(C   5,O  10,C   1,H  12)    176.3251         0.022530   
    513. D(H  21,O  11,C   6,H  17)     61.4207         0.020340   
    514. D(H  21,O  11,C   6,C   5)   -178.1852         0.020340   
    515. D(O  28,C  23,C  22,O  30)   -179.4711         0.010529   
    516. D(C  24,C  23,C  22,H  32)    172.9647         0.010529   
    517. D(C  24,C  23,C  22,O  30)     58.3404         0.010529   
    518. D(C  25,C  24,C  23,C  22)    -55.8850         0.011501   
    519. D(C  25,C  24,C  23,O  28)   -176.6053         0.011501   
    520. D(O 147,C  24,C  23,C  22)   -177.8802         0.011501   
    521. D(O  29,C  25,C  24,C  23)    174.8773         0.010687   
    522. D(C  26,C  25,C  24,C  23)     54.0400         0.010687   
    523. D(C  26,C  25,C  24,O 147)    174.5255         0.010687   
    524. D(O  30,C  26,C  25,C  24)    -53.0643         0.010364   
    525. D(C  27,C  26,C  25,C  24)   -172.1718         0.010364   
    526. D(C  27,C  26,C  25,O  29)     72.4053         0.010364   
    527. D(O  31,C  27,C  26,O  30)     93.5876         0.010249   
    528. D(H  36,C  27,C  26,C  25)    -20.5408         0.010249   
    529. D(O  31,C  27,C  26,C  25)   -144.8745         0.010249   
    530. D(H  38,O  28,C  23,C  24)    -42.1094         0.022413   
    531. D(H  38,O  28,C  23,C  22)   -162.2823         0.022413   
    532. D(C   1,O  29,C  25,C  26)    -99.8861         0.020221   
    533. D(C   1,O  29,C  25,C  24)    141.0551         0.020221   
    534. D(C  25,O  29,C   1,O  10)     95.5699         0.024890   
    535. D(C  25,O  29,C   1,C   2)   -143.0343         0.024890   
    536. D(C  22,O  30,C  26,C  27)   -177.5264         0.019598   
    537. D(C  22,O  30,C  26,C  25)     58.4545         0.019598   
    538. D(C  26,O  30,C  22,H  32)   -178.7309         0.023511   
    539. D(C  26,O  30,C  22,C  23)    -61.3575         0.023511   
    540. D(H  39,O  31,C  27,H  36)    -47.2772         0.025223   
    541. D(H  39,O  31,C  27,C  26)     76.5315         0.025223   
    542. D(C  42,C  41,C  40,O  49)     54.2955         0.010310   
    543. D(O  46,C  41,C  40,O  49)    175.4236         0.010310   
    544. D(C  42,C  41,C  40,H  50)    170.8082         0.010310   
    545. D(O  47,C  42,C  41,C  40)   -178.3287         0.011209   
    546. D(C  43,C  42,C  41,O  46)   -175.1679         0.011209   
    547. D(C  43,C  42,C  41,C  40)    -55.3197         0.011209   
    548. D(O  48,C  43,C  42,C  41)   -177.9420         0.010481   
    549. D(C  44,C  43,C  42,O  47)    178.8993         0.010481   
    550. D(C  44,C  43,C  42,C  41)     59.9318         0.010481   
    551. D(O  49,C  44,C  43,C  42)    -62.0696         0.010283   
    552. D(C  45,C  44,C  43,O  48)     59.3361         0.010283   
    553. D(C  45,C  44,C  43,C  42)   -179.6257         0.010283   
    554. D(H 139,C  45,C  44,C  43)     83.2511         0.011496   
    555. D(N 137,C  45,C  44,O  49)     86.6825         0.011496   
    556. D(N 137,C  45,C  44,C  43)   -155.6706         0.011496   
    557. D(H  55,O  46,C  41,C  42)    -47.2992         0.021791   
    558. D(H  55,O  46,C  41,C  40)   -167.5372         0.021791   
    559. D(H  56,O  47,C  42,C  43)     63.0296         0.021860   
    560. D(H  56,O  47,C  42,C  41)   -177.3278         0.021860   
    561. D(C  22,O  48,C  43,C  44)   -145.3528         0.020117   
    562. D(C  22,O  48,C  43,C  42)     94.9053         0.020117   
    563. D(C  43,O  48,C  22,O  30)     99.3623         0.022675   
    564. D(C  43,O  48,C  22,C  23)   -138.0670         0.022675   
    565. D(C  40,O  49,C  44,C  45)   -176.5976         0.018745   
    566. D(C  40,O  49,C  44,C  43)     63.4807         0.018745   
    567. D(C  44,O  49,C  40,H  50)   -178.8682         0.023579   
    568. D(C  44,O  49,C  40,C  41)    -59.7838         0.023579   
    569. D(O  63,C  58,C  57,O  66)   -178.1816         0.010800   
    570. D(C  59,C  58,C  57,H  68)    176.2339         0.010800   
    571. D(C  59,C  58,C  57,O  66)     60.4649         0.010800   
    572. D(O  64,C  59,C  58,C  57)   -174.5736         0.011236   
    573. D(C  60,C  59,C  58,O  63)   -171.3159         0.011236   
    574. D(C  60,C  59,C  58,C  57)    -51.1920         0.011236   
    575. D(O  65,C  60,C  59,C  58)    163.9009         0.010491   
    576. D(C  61,C  60,C  59,O  64)    166.4337         0.010491   
    577. D(C  61,C  60,C  59,C  58)     44.6184         0.010491   
    578. D(O  66,C  61,C  60,C  59)    -45.7886         0.010274   
    579. D(C  62,C  61,C  60,O  65)     82.6420         0.010274   
    580. D(C  62,C  61,C  60,C  59)   -163.6483         0.010274   
    581. D(H  73,C  62,C  61,C  60)     68.2617         0.010630   
    582. D(O  67,C  62,C  61,O  66)   -173.5038         0.010630   
    583. D(O  67,C  62,C  61,C  60)    -51.2601         0.010630   
    584. D(H  75,O  63,C  58,C  59)    -45.7344         0.022631   
    585. D(H  75,O  63,C  58,C  57)   -165.2903         0.022631   
    586. D(H  76,O  64,C  59,C  60)     32.0763         0.022056   
    587. D(H  76,O  64,C  59,C  58)    156.6565         0.022056   
    588. D(C  40,O  65,C  60,C  61)    -96.6393         0.020394   
    589. D(C  40,O  65,C  60,C  59)    144.1015         0.020394   
    590. D(C  60,O  65,C  40,O  49)    124.5904         0.023325   
    591. D(C  60,O  65,C  40,C  41)   -113.4120         0.023325   
    592. D(C  57,O  66,C  61,C  62)   -176.4951         0.018881   
    593. D(C  57,O  66,C  61,C  60)     58.8260         0.018881   
    594. D(C  61,O  66,C  57,H  68)    174.9072         0.023186   
    595. D(C  61,O  66,C  57,C  58)    -66.5031         0.023186   
    596. D(H  77,O  67,C  62,H  73)   -166.2632         0.023888   
    597. D(H  77,O  67,C  62,C  61)    -45.5802         0.023888   
    598. D(O  84,C  79,C  78,O  87)   -178.3383         0.010751   
    599. D(C  80,C  79,C  78,H  89)    174.5922         0.010751   
    600. D(C  80,C  79,C  78,O  87)     59.7180         0.010751   
    601. D(O  85,C  80,C  79,C  78)   -177.7619         0.011514   
    602. D(C  81,C  80,C  79,O  84)   -175.5911         0.011514   
    603. D(C  81,C  80,C  79,C  78)    -55.4276         0.011514   
    604. D(O  86,C  81,C  80,C  79)    172.7056         0.010390   
    605. D(C  82,C  81,C  80,O  85)    172.2581         0.010390   
    606. D(C  82,C  81,C  80,C  79)     51.3117         0.010390   
    607. D(O  87,C  82,C  81,C  80)    -50.0043         0.010219   
    608. D(C  83,C  82,C  81,O  86)     76.7247         0.010219   
    609. D(C  83,C  82,C  81,C  80)   -169.1983         0.010219   
    610. D(H  94,C  83,C  82,C  81)    -31.9598         0.011194   
    611. D(O  88,C  83,C  82,O  87)     85.0822         0.011194   
    612. D(O  88,C  83,C  82,C  81)   -152.3006         0.011194   
    613. D(H  96,O  84,C  79,C  80)    -42.5832         0.022290   
    614. D(H  96,O  84,C  79,C  78)   -162.0105         0.022290   
    615. D(H  97,O  85,C  80,C  81)     45.3756         0.022291   
    616. D(H  97,O  85,C  80,C  79)    167.8571         0.022291   
    617. D(C  57,O  86,C  81,C  82)    -85.6143         0.020418   
    618. D(C  57,O  86,C  81,C  80)    155.7703         0.020418   
    619. D(C  81,O  86,C  57,O  66)     87.3882         0.024508   
    620. D(C  81,O  86,C  57,C  58)   -152.1534         0.024508   
    621. D(C  78,O  87,C  82,C  83)   -176.5534         0.019579   
    622. D(C  78,O  87,C  82,C  81)     57.9870         0.019579   
    623. D(C  82,O  87,C  78,H  89)    179.0577         0.024167   
    624. D(C  82,O  87,C  78,C  79)    -63.0320         0.024167   
    625. D(H  98,O  88,C  83,H  94)     67.4501         0.021040   
    626. D(H  98,O  88,C  83,C  82)   -171.9420         0.021040   
    627. D(O 104,C 100,C  99,O 107)    177.1832         0.010234   
    628. D(C 101,C 100,C  99,H 108)    171.1589         0.010234   
    629. D(C 101,C 100,C  99,O 107)     55.2036         0.010234   
    630. D(O 105,C 101,C 100,C  99)    178.7995         0.011169   
    631. D(C 102,C 101,C 100,O 104)   -179.1404         0.011169   
    632. D(C 102,C 101,C 100,C  99)    -57.9040         0.011169   
    633. D(C 103,C 102,C 101,C 100)     61.0971         0.010400   
    634. D(H   0,C 102,C 101,O 105)     62.5894         0.010400   
    635. D(H   0,C 102,C 101,C 100)    -56.5584         0.010400   
    636. D(C 143,C 103,C 102,H   0)    -61.8168         0.010506   
    637. D(O 107,C 103,C 102,C 101)    -61.4044         0.010506   
    638. D(O 107,C 103,C 102,H   0)     57.0370         0.010506   
    639. D(H 111,O 104,C 100,C 101)    -47.2336         0.021966   
    640. D(H 111,O 104,C 100,C  99)   -168.2370         0.021966   
    641. D(H 112,O 105,C 101,C 102)     66.9609         0.021972   
    642. D(H 112,O 105,C 101,C 100)   -173.9027         0.021972   
    643. D(C  78,O 106,C 102,C 101)     89.5518         0.020612   
    644. D(C  78,O 106,C 102,H   0)    -31.8070         0.020612   
    645. D(C 102,O 106,C  78,O  87)     99.3530         0.022088   
    646. D(C 102,O 106,C  78,C  79)   -138.7620         0.022088   
    647. D(C  99,O 107,C 103,C 143)   -175.9037         0.019220   
    648. D(C  99,O 107,C 103,C 102)     61.6672         0.019220   
    649. D(C 103,O 107,C  99,H 108)   -176.7576         0.024097   
    650. D(C 103,O 107,C  99,C 100)    -58.0550         0.024097   
    651. D(O 122,C 113,O   9,C   4)     99.6737         0.024333   
    652. D(C 114,C 113,O   9,C   4)   -139.0592         0.024333   
    653. D(O 119,C 114,C 113,O   9)     59.6520         0.011033   
    654. D(C 115,C 114,C 113,O 122)     61.6312         0.011033   
    655. D(C 115,C 114,C 113,O   9)    -60.9501         0.011033   
    656. D(O 120,C 115,C 114,C 113)   -177.8098         0.011178   
    657. D(C 116,C 115,C 114,O 119)   -172.8813         0.011178   
    658. D(C 116,C 115,C 114,C 113)    -53.9305         0.011178   
    659. D(O 121,C 116,C 115,C 114)    165.0262         0.010600   
    660. D(C 117,C 116,C 115,O 120)    167.1902         0.010600   
    661. D(C 117,C 116,C 115,C 114)     45.8269         0.010600   
    662. D(O 122,C 117,C 116,C 115)    -43.6878         0.009943   
    663. D(C 118,C 117,C 116,O 121)     83.3702         0.009943   
    664. D(C 118,C 117,C 116,C 115)   -160.8222         0.009943   
    665. D(H 129,C 118,C 117,C 116)     64.9720         0.010467   
    666. D(O 123,C 118,C 117,O 122)   -176.9549         0.010467   
    667. D(O 123,C 118,C 117,C 116)    -54.1541         0.010467   
    668. D(H 131,O 119,C 114,C 115)    -43.9134         0.022221   
    669. D(H 131,O 119,C 114,C 113)   -162.6247         0.022221   
    670. D(H 132,O 120,C 115,C 116)     21.1143         0.022259   
    671. D(H 132,O 120,C 115,C 114)    144.6711         0.022259   
    672. D(C  99,O 121,C 116,C 117)   -102.6607         0.019657   
    673. D(C  99,O 121,C 116,C 115)    137.0236         0.019657   
    674. D(C 116,O 121,C  99,O 107)    137.1517         0.022106   
    675. D(C 116,O 121,C  99,C 100)   -100.7679         0.022106   
    676. D(C 113,O 122,C 117,C 118)    176.5989         0.019152   
    677. D(C 113,O 122,C 117,C 116)     53.5068         0.019152   
    678. D(C 117,O 122,C 113,C 114)    -62.8977         0.023405   
    679. D(C 117,O 122,C 113,O   9)     56.7207         0.023405   
    680. D(H 133,O 123,C 118,H 129)   -175.2275         0.024367   
    681. D(H 133,O 123,C 118,C 117)    -55.0832         0.024367   
    682. D(C 142,C 135,C 134,N 136)   -178.9779         0.024002   
    683. D(N 137,C 135,C 134,C 141)    179.9971         0.024002   
    684. D(N 137,C 135,C 134,N 136)      0.0446         0.024002   
    685. D(C 143,N 136,C 134,C 135)    178.6525         0.027673   
    686. D(C 138,N 136,C 134,C 141)   -177.6273         0.027673   
    687. D(C 138,N 136,C 134,C 135)      2.3187         0.027673   
    688. D(C 138,N 137,C 135,C 134)     -2.4286         0.026463   
    689. D(C  45,N 137,C 135,C 142)     -2.0036         0.026463   
    690. D(C  45,N 137,C 135,C 134)    179.1106         0.026463   
    691. D(C 138,N 137,C  45,C  44)      6.0516         0.017328   
    692. D(C 135,N 137,C  45,H 139)    -54.9445         0.017328   
    693. D(C 135,N 137,C  45,C  44)   -175.8770         0.017328   
    694. D(N 150,C 138,N 137,C  45)      2.6879         0.027448   
    695. D(N 136,C 138,N 137,C 135)      3.8084         0.027448   
    696. D(N 136,C 138,N 137,C  45)   -177.9590         0.027448   
    697. D(N 150,C 138,N 136,C 134)    175.5257         0.023047   
    698. D(N 137,C 138,N 136,C 143)    179.8931         0.023047   
    699. D(N 137,C 138,N 136,C 134)     -3.7982         0.023047   
    700. D(H 157,C 141,C 134,C 135)    179.0165         0.029148   
    701. D(C 153,C 141,C 134,N 136)    178.9269         0.029148   
    702. D(C 153,C 141,C 134,C 135)     -1.0125         0.029148   
    703. D(H 155,C 142,C 135,C 134)    178.6347         0.028915   
    704. D(C 152,C 142,C 135,N 137)   -178.9019         0.028915   
    705. D(C 152,C 142,C 135,C 134)     -0.1390         0.028915   
    706. D(H 145,C 143,N 136,C 134)     37.3617         0.019313   
    707. D(C 103,C 143,N 136,C 138)     93.0674         0.019313   
    708. D(C 103,C 143,N 136,C 134)    -82.6674         0.019313   
    709. D(H 145,C 143,C 103,C 102)     88.8385         0.010488   
    710. D(N 136,C 143,C 103,O 107)     89.4899         0.010488   
    711. D(N 136,C 143,C 103,C 102)   -150.7033         0.010488   
    712. D(H 149,O 147,C  24,C  25)     43.4411         0.022122   
    713. D(H 149,O 147,C  24,C  23)    164.6303         0.022122   
    714. D(H 151,N 150,C 138,N 137)    176.3491         0.065331   
    715. D(H 151,N 150,C 138,N 136)     -2.8625         0.065331   
    716. D(H 154,C 152,C 142,C 135)   -179.9680         0.027026   
    717. D(C 153,C 152,C 142,H 155)   -179.4011         0.027026   
    718. D(C 153,C 152,C 142,C 135)     -0.6086         0.027026   
    719. D(H 156,C 153,C 152,C 142)   -179.4249         0.027768   
    720. D(C 141,C 153,C 152,H 154)    179.9113         0.027768   
    721. D(C 141,C 153,C 152,C 142)      0.5569         0.027768   
    722. D(H 156,C 153,C 141,C 134)   -179.7539         0.026899   
    723. D(C 152,C 153,C 141,H 157)   -179.7649         0.026899   
    724. D(C 152,C 153,C 141,C 134)      0.2642         0.026899   
    -----------------------------------------------------------------

Number of atoms                         .... 158
Number of degrees of freedom            .... 724

         *************************************************************
         *                GEOMETRY OPTIMIZATION CYCLE   1            *
         *************************************************************
---------------------------------
CARTESIAN COORDINATES (ANGSTROEM)
---------------------------------
  H    -31.581613  -29.710541  -13.511394
  C    -21.639235  -27.261927   -9.601869
  C    -21.965245  -27.976891   -8.278503
  C    -23.470907  -28.244806   -8.219065
  C    -24.256244  -26.948459   -8.482026
  C    -23.773553  -26.312137   -9.794517
  C    -24.471722  -24.999783  -10.157719
  O    -21.227519  -29.170260   -8.236067
  O    -23.774935  -28.785874   -6.959521
  O    -25.613587  -27.329873   -8.573424
  O    -22.374678  -26.071775   -9.713536
  O    -24.944417  -25.121822  -11.487826
  H    -20.582528  -26.961197   -9.614986
  H    -21.688386  -27.318848   -7.441050
  H    -23.729278  -28.957974   -9.017458
  H    -24.098062  -26.249458   -7.649567
  H    -23.975560  -27.027582  -10.603670
  H    -25.305587  -24.809853   -9.473244
  H    -23.740919  -24.186880  -10.074835
  H    -21.595210  -29.697784   -7.514328
  H    -24.742119  -28.808682   -6.857425
  H    -25.367234  -24.299512  -11.762418
  C    -20.941464  -29.051326  -14.522604
  C    -20.248030  -29.878224  -13.426435
  C    -21.012440  -29.686757  -12.120285
  C    -21.102314  -28.191388  -11.780730
  C    -21.702329  -27.415587  -12.968763
  C    -21.661408  -25.882411  -12.807396
  O    -20.208351  -31.227162  -13.814380
  O    -21.929044  -28.152561  -10.629760
  O    -20.979917  -27.701924  -14.159378
  O    -22.776531  -25.247512  -13.366063
  H    -20.332141  -29.078813  -15.434890
  H    -19.224918  -29.490973  -13.298374
  H    -20.099415  -27.806171  -11.549128
  H    -22.746322  -27.745232  -13.078770
  H    -21.552952  -25.621456  -11.750309
  H    -20.790129  -25.521297  -13.359308
  H    -20.036626  -31.741680  -13.014200
  H    -23.542075  -25.361467  -12.775962
  C    -24.155207  -30.636985  -18.316378
  C    -22.686374  -31.074952  -18.154033
  C    -22.310260  -31.049480  -16.672077
  C    -22.606076  -29.643113  -16.121756
  C    -24.111354  -29.369489  -16.311770
  C    -24.489700  -27.983916  -15.797729
  O    -22.539779  -32.370461  -18.685248
  O    -20.954964  -31.418037  -16.581558
  O    -22.225208  -29.565302  -14.757745
  O    -24.383391  -29.397176  -17.713002
  H    -24.385379  -30.494300  -19.378508
  H    -22.038462  -30.368689  -18.694307
  H    -22.940449  -31.770309  -16.130321
  H    -22.047257  -28.898116  -16.705010
  H    -24.709807  -30.135183  -15.806886
  H    -21.673678  -32.685303  -18.390022
  H    -20.701394  -31.450938  -15.644050
  C    -28.250099  -33.930274  -18.162732
  C    -26.925058  -34.690134  -18.309964
  C    -25.789625  -33.765726  -17.870076
  C    -25.833566  -32.389568  -18.557144
  C    -27.263803  -31.813978  -18.575758
  C    -27.493684  -30.657192  -19.561106
  O    -26.967888  -35.852139  -17.525054
  O    -24.569326  -34.417215  -18.123077
  O    -24.973179  -31.615121  -17.740744
  O    -28.219050  -32.793818  -18.979348
  O    -26.580806  -29.604447  -19.477852
  H    -29.084301  -34.543773  -18.534658
  H    -26.792315  -34.944195  -19.373148
  H    -25.904300  -33.579449  -16.790075
  H    -25.440116  -32.473397  -19.578968
  H    -27.473685  -31.476823  -17.551407
  H    -27.424326  -31.048087  -20.580563
  H    -28.519609  -30.297388  -19.396034
  H    -26.056576  -36.167604  -17.457960
  H    -23.876737  -33.737725  -18.204934
  H    -26.439530  -29.360175  -18.552888
  C    -31.160885  -32.044722  -14.222221
  C    -30.737471  -33.496795  -13.959457
  C    -29.482366  -33.774948  -14.780348
  C    -29.715113  -33.473987  -16.272800
  C    -30.305555  -32.058617  -16.439501
  C    -30.826140  -31.721347  -17.837405
  O    -30.515599  -33.670420  -12.583103
  O    -29.111662  -35.116648  -14.590303
  O    -28.414925  -33.622414  -16.814630
  O    -31.421727  -31.864964  -15.580168
  O    -30.715667  -30.322900  -18.002027
  H    -32.115327  -31.840894  -13.722075
  H    -31.545060  -34.162403  -14.301363
  H    -28.681628  -33.104466  -14.430662
  H    -30.400204  -34.220233  -16.702675
  H    -29.514251  -31.340839  -16.187738
  H    -30.241061  -32.239852  -18.602644
  H    -31.874425  -32.040528  -17.888035
  H    -29.988791  -34.475075  -12.485452
  H    -28.441770  -35.329173  -15.256118
  H    -31.152998  -30.071171  -18.822216
  C    -30.359482  -27.842608  -11.232491
  C    -31.317686  -29.015694  -10.941453
  C    -30.767315  -30.291001  -11.582226
  C    -30.615803  -30.022906  -13.091162
  C    -29.616406  -28.863646  -13.247679
  O    -31.467095  -29.174094   -9.551606
  O    -31.653511  -31.338084  -11.270364
  O    -30.152511  -31.179777  -13.761679
  O    -30.147993  -27.709213  -12.604677
  H    -30.818971  -26.899095  -10.915836
  H    -32.292546  -28.785181  -11.397086
  H    -29.770974  -30.502448  -11.165925
  H    -31.915169  -30.023669   -9.425281
  H    -31.270919  -32.173474  -11.586334
  C    -26.554206  -26.685775   -7.772008
  C    -27.524123  -27.753742   -7.258179
  C    -28.205994  -28.397285   -8.466662
  C    -28.862642  -27.346525   -9.376534
  C    -27.924007  -26.145697   -9.639375
  C    -28.659612  -24.885983  -10.130122
  O    -26.793463  -28.703355   -6.523857
  O    -29.131121  -29.340398   -7.988224
  O    -29.124474  -28.038992  -10.589893
  O    -27.252811  -25.693244   -8.466825
  O    -29.465762  -25.065082  -11.252373
  H    -26.077604  -26.168227   -6.927769
  H    -28.283789  -27.274837   -6.622356
  H    -27.430853  -28.904267   -9.063276
  H    -29.797035  -27.001089   -8.916626
  H    -27.186090  -26.474685  -10.386983
  H    -29.317280  -24.538334   -9.328743
  H    -27.899916  -24.110280  -10.305378
  H    -27.356651  -29.486532   -6.453645
  H    -29.908554  -29.344421   -8.576456
  H    -28.948029  -25.445284  -11.976078
  C    -27.680124  -26.641558  -14.713079
  C    -26.310611  -26.541949  -15.012272
  N    -28.046495  -27.950922  -14.931063
  N    -25.871770  -27.792326  -15.407149
  C    -26.916533  -28.685827  -15.311370
  H    -24.263354  -27.263699  -16.593020
  H    -23.855699  -27.756413  -14.934802
  C    -28.406457  -25.547763  -14.286968
  C    -25.637328  -25.344103  -14.870179
  C    -29.359799  -28.486845  -14.717409
  H    -28.668557  -29.150398  -12.772838
  H    -30.099451  -27.738397  -15.010994
  H    -29.495281  -29.369211  -15.346002
  O    -20.355017  -30.401384  -11.103626
  H    -22.037395  -30.066550  -12.254870
  H    -20.690390  -30.086014  -10.249295
  N    -26.825185  -29.935659  -15.523505
  H    -27.682337  -30.446159  -15.349733
  C    -26.368789  -24.249268  -14.424577
  C    -27.723373  -24.344865  -14.144225
  H    -25.865561  -23.301446  -14.305781
  H    -24.583863  -25.253225  -15.073729
  H    -28.264420  -23.472802  -13.808590
  H    -29.460529  -25.624932  -14.073473

----------------------------
CARTESIAN COORDINATES (A.U.)
----------------------------
  NO LB      ZA    FRAG     MASS         X           Y           Z
   0 H     1.0000    0     1.008  -59.680599  -56.144786  -25.532833
   1 C     6.0000    0    12.011  -40.892227  -51.517575  -18.144904
   2 C     6.0000    0    12.011  -41.508297  -52.868663  -15.644103
   3 C     6.0000    0    12.011  -44.353587  -53.374948  -15.531782
   4 C     6.0000    0    12.011  -45.837657  -50.925207  -16.028706
   5 C     6.0000    0    12.011  -44.925504  -49.722732  -18.508955
   6 C     6.0000    0    12.011  -46.244852  -47.242744  -19.195308
   7 O     8.0000    0    15.999  -40.114198  -55.123803  -15.563911
   8 O     8.0000    0    15.999  -44.928116  -54.397419  -13.151588
   9 O     8.0000    0    15.999  -48.402664  -51.645976  -16.201423
  10 O     8.0000    0    15.999  -42.282013  -49.268514  -18.355923
  11 O     8.0000    0    15.999  -47.138118  -47.473363  -21.708845
  12 H     1.0000    0     1.008  -38.895341  -50.949279  -18.169690
  13 H     1.0000    0     1.008  -40.985110  -51.625141  -14.061546
  14 H     1.0000    0     1.008  -44.841837  -54.722639  -17.040526
  15 H     1.0000    0     1.008  -45.538737  -49.604286  -14.455587
  16 H     1.0000    0     1.008  -45.307242  -51.074728  -20.038033
  17 H     1.0000    0     1.008  -47.820629  -46.883827  -17.901836
  18 H     1.0000    0     1.008  -44.863835  -45.706580  -19.038680
  19 H     1.0000    0     1.008  -40.809032  -56.120679  -14.200022
  20 H     1.0000    0     1.008  -46.755829  -54.440520  -12.958654
  21 H     1.0000    0     1.008  -47.937125  -45.919424  -22.227749
  22 C     6.0000    0    12.011  -39.573633  -54.899050  -27.443744
  23 C     6.0000    0    12.011  -38.263231  -56.461661  -25.372285
  24 C     6.0000    0    12.011  -39.707757  -56.099841  -22.904020
  25 C     6.0000    0    12.011  -39.877595  -53.274003  -22.262353
  26 C     6.0000    0    12.011  -41.011458  -51.807951  -24.507410
  27 C     6.0000    0    12.011  -40.934128  -48.910668  -24.202471
  28 O     8.0000    0    15.999  -38.188250  -59.010785  -26.105395
  29 O     8.0000    0    15.999  -41.439887  -53.200631  -20.087335
  30 O     8.0000    0    15.999  -39.646297  -52.349049  -26.757346
  31 O     8.0000    0    15.999  -43.041407  -47.710884  -25.258199
  32 H     1.0000    0     1.008  -38.422178  -54.950993  -29.167714
  33 H     1.0000    0     1.008  -36.329830  -55.729862  -25.130285
  34 H     1.0000    0     1.008  -37.982389  -52.546047  -21.824689
  35 H     1.0000    0     1.008  -42.984319  -52.430890  -24.715293
  36 H     1.0000    0     1.008  -40.729177  -48.417535  -22.204865
  37 H     1.0000    0     1.008  -39.287650  -48.228262  -25.245434
  38 H     1.0000    0     1.008  -37.863735  -59.983083  -24.593273
  39 H     1.0000    0     1.008  -44.488074  -47.926226  -24.143069
  40 C     6.0000    0    12.011  -45.646726  -57.895510  -34.612938
  41 C     6.0000    0    12.011  -42.871034  -58.723150  -34.306151
  42 C     6.0000    0    12.011  -42.160282  -58.675014  -31.505659
  43 C     6.0000    0    12.011  -42.719292  -56.017365  -30.465703
  44 C     6.0000    0    12.011  -45.563856  -55.500290  -30.824779
  45 C     6.0000    0    12.011  -46.278826  -52.881937  -29.853381
  46 O     8.0000    0    15.999  -42.594010  -61.171306  -35.310002
  47 O     8.0000    0    15.999  -39.599144  -59.371486  -31.334603
  48 O     8.0000    0    15.999  -41.999556  -55.870323  -27.888096
[...]
 68 H      0.9740     1.0000     0.0260     0.9942     0.9942    -0.0000
 69 H      0.9761     1.0000     0.0239     0.9909     0.9909     0.0000
 70 H      0.9639     1.0000     0.0361     1.0040     1.0040    -0.0000
 71 H      0.9719     1.0000     0.0281     0.9982     0.9982    -0.0000
 72 H      0.9457     1.0000     0.0543     1.0151     1.0151    -0.0000
 73 H      0.9828     1.0000     0.0172     0.9926     0.9926    -0.0000
 74 H      0.9830     1.0000     0.0170     1.0064     1.0064     0.0000
 75 H      0.7988     1.0000     0.2012     1.0049     1.0049     0.0000
 76 H      0.7907     1.0000     0.2093     1.0362     1.0362    -0.0000
 77 H      0.7876     1.0000     0.2124     1.0051     1.0051     0.0000
 78 C      5.4781     6.0000     0.5219     3.7717     3.7717    -0.0000
 79 C      5.7206     6.0000     0.2794     3.8379     3.8379    -0.0000
 80 C      5.7848     6.0000     0.2152     3.8978     3.8978    -0.0000
 81 C      5.7881     6.0000     0.2119     3.8089     3.8089     0.0000
 82 C      5.8290     6.0000     0.1710     3.7403     3.7403    -0.0000
 83 C      5.6627     6.0000     0.3373     3.8724     3.8724    -0.0000
 84 O      8.4514     8.0000    -0.4514     1.9580     1.9580     0.0000
 85 O      8.4514     8.0000    -0.4514     1.9593     1.9593    -0.0000
 86 O      8.6276     8.0000    -0.6276     1.7399     1.7399    -0.0000
 87 O      8.5991     8.0000    -0.5991     1.8007     1.8007    -0.0000
 88 O      8.4360     8.0000    -0.4360     1.9613     1.9613    -0.0000
 89 H      0.9568     1.0000     0.0432     1.0137     1.0137     0.0000
 90 H      0.9727     1.0000     0.0273     0.9899     0.9899     0.0000
 91 H      0.9545     1.0000     0.0455     1.0030     1.0030     0.0000
 92 H      0.9743     1.0000     0.0257     0.9942     0.9942    -0.0000
 93 H      0.9655     1.0000     0.0345     0.9910     0.9910    -0.0000
 94 H      0.9550     1.0000     0.0450     1.0042     1.0042     0.0000
 95 H      0.9871     1.0000     0.0129     0.9915     0.9915    -0.0000
 96 H      0.7910     1.0000     0.2090     1.0004     1.0004     0.0000
 97 H      0.7916     1.0000     0.2084     1.0166     1.0166    -0.0000
 98 H      0.8143     1.0000     0.1857     1.0001     1.0001    -0.0000
 99 C      5.4406     6.0000     0.5594     3.7652     3.7652    -0.0000
100 C      5.7524     6.0000     0.2476     3.8335     3.8335    -0.0000
101 C      5.7719     6.0000     0.2281     3.8913     3.8913    -0.0000
102 C      5.8016     6.0000     0.1984     3.8019     3.8019    -0.0000
103 C      5.7996     6.0000     0.2004     3.7555     3.7555    -0.0000
104 O      8.4553     8.0000    -0.4553     1.9542     1.9542    -0.0000
105 O      8.4672     8.0000    -0.4672     1.9533     1.9533    -0.0000
106 O      8.6276     8.0000    -0.6276     1.7346     1.7346    -0.0000
107 O      8.6158     8.0000    -0.6158     1.8026     1.8026     0.0000
108 H      0.9440     1.0000     0.0560     1.0119     1.0119    -0.0000
109 H      0.9722     1.0000     0.0278     0.9885     0.9885     0.0000
110 H      0.9667     1.0000     0.0333     1.0016     1.0016    -0.0000
111 H      0.7872     1.0000     0.2128     0.9984     0.9984     0.0000
112 H      0.7811     1.0000     0.2189     1.0261     1.0261    -0.0000
113 C      5.4534     6.0000     0.5466     3.7469     3.7469    -0.0000
114 C      5.7336     6.0000     0.2664     3.8319     3.8319    -0.0000
115 C      5.7688     6.0000     0.2312     3.9295     3.9295    -0.0000
116 C      5.7747     6.0000     0.2253     3.7755     3.7755    -0.0000
117 C      5.8328     6.0000     0.1672     3.7409     3.7409    -0.0000
118 C      5.6366     6.0000     0.3634     3.8711     3.8711     0.0000
119 O      8.4532     8.0000    -0.4532     1.9571     1.9571    -0.0000
120 O      8.4630     8.0000    -0.4630     1.9615     1.9615     0.0000
121 O      8.6418     8.0000    -0.6418     1.7284     1.7284     0.0000
122 O      8.6191     8.0000    -0.6191     1.7751     1.7751     0.0000
123 O      8.4550     8.0000    -0.4550     1.9575     1.9575    -0.0000
124 H      0.9674     1.0000     0.0326     0.9962     0.9962     0.0000
125 H      0.9744     1.0000     0.0256     0.9917     0.9917     0.0000
126 H      0.9694     1.0000     0.0306     1.0024     1.0024    -0.0000
127 H      0.9693     1.0000     0.0307     0.9989     0.9989    -0.0000
128 H      0.9654     1.0000     0.0346     0.9966     0.9966    -0.0000
129 H      0.9769     1.0000     0.0231     0.9944     0.9944    -0.0000
130 H      0.9793     1.0000     0.0207     0.9858     0.9858     0.0000
131 H      0.7879     1.0000     0.2121     0.9978     0.9978     0.0000
132 H      0.7877     1.0000     0.2123     1.0445     1.0445    -0.0000
133 H      0.7829     1.0000     0.2171     0.9930     0.9930    -0.0000
134 C      5.7425     6.0000     0.2575     3.7738     3.7738    -0.0000
135 C      5.7618     6.0000     0.2382     3.7918     3.7918    -0.0000
136 N      7.6471     7.0000    -0.6471     2.8999     2.8999    -0.0000
137 N      7.6340     7.0000    -0.6340     2.9239     2.9239    -0.0000
138 C      5.4912     6.0000     0.5088     4.0005     4.0005    -0.0000
139 H      0.9568     1.0000     0.0432     1.0034     1.0034     0.0000
140 H      0.9412     1.0000     0.0588     0.9983     0.9983    -0.0000
141 C      6.1575     6.0000    -0.1575     3.9031     3.9031    -0.0000
142 C      6.1073     6.0000    -0.1073     3.9264     3.9264    -0.0000
143 C      5.6923     6.0000     0.3077     3.7838     3.7838    -0.0000
144 H      0.9545     1.0000     0.0455     1.0148     1.0148     0.0000
145 H      0.9422     1.0000     0.0578     1.0053     1.0053    -0.0000
146 H      0.9214     1.0000     0.0786     1.0174     1.0174     0.0000
147 O      8.4635     8.0000    -0.4635     1.9512     1.9512     0.0000
148 H      0.9641     1.0000     0.0359     1.0037     1.0037    -0.0000
149 H      0.7892     1.0000     0.2108     1.0324     1.0324    -0.0000
150 N      7.3571     7.0000    -0.3571     2.9860     2.9860    -0.0000
151 H      0.8778     1.0000     0.1222     1.0179     1.0179    -0.0000
152 C      6.0326     6.0000    -0.0326     3.8666     3.8666    -0.0000
153 C      6.0203     6.0000    -0.0203     3.8450     3.8450    -0.0000
154 H      0.9630     1.0000     0.0370     0.9872     0.9872     0.0000
155 H      0.9480     1.0000     0.0520     1.0005     1.0005    -0.0000
156 H      0.9620     1.0000     0.0380     0.9872     0.9872     0.0000
157 H      0.9597     1.0000     0.0403     0.9998     0.9998    -0.0000

  Mayer bond orders larger than 0.100000
B(  0-H ,102-C ) :   0.9453 B(  1-C ,  2-C ) :   1.0105 B(  1-C , 10-O ) :   0.8995 
B(  1-C , 12-H ) :   0.9617 B(  1-C , 29-O ) :   0.8837 B(  2-C ,  3-C ) :   1.0026 
B(  2-C ,  7-O ) :   0.9396 B(  2-C , 13-H ) :   0.9621 B(  3-C ,  4-C ) :   1.0274 
B(  3-C ,  8-O ) :   0.9903 B(  3-C , 14-H ) :   0.9533 B(  4-C ,  5-C ) :   0.9844 
B(  4-C ,  9-O ) :   0.8420 B(  4-C , 15-H ) :   0.9453 B(  5-C ,  6-C ) :   1.0160 
B(  5-C , 10-O ) :   0.8479 B(  5-C , 16-H ) :   0.9471 B(  6-C , 11-O ) :   0.9510 
B(  6-C , 17-H ) :   0.9759 B(  6-C , 18-H ) :   0.9600 B(  7-O , 19-H ) :   0.9613 
B(  8-O , 20-H ) :   0.9408 B(  9-O ,113-C ) :   0.8722 B( 11-O , 21-H ) :   0.9688 
B( 22-C , 23-C ) :   1.0093 B( 22-C , 30-O ) :   0.9315 B( 22-C , 32-H ) :   0.9564 
B( 22-C , 48-O ) :   0.8746 B( 23-C , 24-C ) :   1.0028 B( 23-C , 28-O ) :   0.9363 
B( 23-C , 33-H ) :   0.9631 B( 24-C , 25-C ) :   1.0200 B( 24-C ,147-O ) :   0.9802 
B( 24-C ,148-H ) :   0.9554 B( 25-C , 26-C ) :   0.9806 B( 25-C , 29-O ) :   0.8291 
B( 25-C , 34-H ) :   0.9469 B( 26-C , 27-C ) :   0.9727 B( 26-C , 30-O ) :   0.8567 
B( 26-C , 35-H ) :   0.9471 B( 27-C , 31-O ) :   0.9495 B( 27-C , 36-H ) :   0.9888 
B( 27-C , 37-H ) :   0.9609 B( 28-O , 38-H ) :   0.9605 B( 31-O , 39-H ) :   0.9669 
B( 40-C , 41-C ) :   1.0162 B( 40-C , 49-O ) :   0.9068 B( 40-C , 50-H ) :   0.9592 
B( 40-C , 65-O ) :   0.8623 B( 41-C , 42-C ) :   1.0088 B( 41-C , 46-O ) :   0.9240 
B( 41-C , 51-H ) :   0.9573 B( 42-C , 43-C ) :   1.0230 B( 42-C , 47-O ) :   0.9678 
B( 42-C , 52-H ) :   0.9561 B( 43-C , 44-C ) :   1.0056 B( 43-C , 48-O ) :   0.8448 
B( 43-C , 53-H ) :   0.9429 B( 44-C , 45-C ) :   1.0385 B( 44-C , 49-O ) :   0.8374 
B( 44-C , 54-H ) :   0.9391 B( 45-C ,137-N ) :   0.8536 B( 45-C ,139-H ) :   0.9657 
B( 45-C ,140-H ) :   0.9733 B( 46-O , 55-H ) :   0.9630 B( 47-O , 56-H ) :   0.9423 
B( 57-C , 58-C ) :   1.0061 B( 57-C , 66-O ) :   0.9014 B( 57-C , 68-H ) :   0.9616 
B( 57-C , 86-O ) :   0.8762 B( 58-C , 59-C ) :   0.9998 B( 58-C , 63-O ) :   0.9523 
B( 58-C , 69-H ) :   0.9605 B( 59-C , 60-C ) :   1.0220 B( 59-C , 64-O ) :   0.9911 
B( 59-C , 70-H ) :   0.9566 B( 60-C , 61-C ) :   0.9710 B( 60-C , 65-O ) :   0.8429 
B( 60-C , 71-H ) :   0.9497 B( 61-C , 62-C ) :   1.0103 B( 61-C , 66-O ) :   0.8227 
B( 61-C , 72-H ) :   0.9409 B( 62-C , 67-O ) :   0.9460 B( 62-C , 73-H ) :   0.9627 
B( 62-C , 74-H ) :   0.9837 B( 63-O , 75-H ) :   0.9673 B( 64-O , 76-H ) :   0.9466 
B( 67-O , 77-H ) :   0.9500 B( 78-C , 79-C ) :   1.0098 B( 78-C , 87-O ) :   0.9333 
B( 78-C , 89-H ) :   0.9570 B( 78-C ,106-O ) :   0.8621 B( 79-C , 80-C ) :   1.0004 
B( 79-C , 84-O ) :   0.9381 B( 79-C , 90-H ) :   0.9630 B( 80-C , 81-C ) :   1.0183 
B( 80-C , 85-O ) :   0.9772 B( 80-C , 91-H ) :   0.9600 B( 81-C , 82-C ) :   0.9858 
B( 81-C , 86-O ) :   0.8560 B( 81-C , 92-H ) :   0.9513 B( 82-C , 83-C ) :   1.0078 
B( 82-C , 87-O ) :   0.8524 B( 82-C , 93-H ) :   0.9419 B( 83-C , 88-O ) :   0.9695 
B( 83-C , 94-H ) :   0.9755 B( 83-C , 95-H ) :   0.9582 B( 84-O , 96-H ) :   0.9601 
B( 85-O , 97-H ) :   0.9559 B( 88-O , 98-H ) :   0.9764 B( 99-C ,100-C ) :   1.0157 
B( 99-C ,107-O ) :   0.9125 B( 99-C ,108-H ) :   0.9622 B( 99-C ,121-O ) :   0.8564 
B(100-C ,101-C ) :   1.0036 B(100-C ,104-O ) :   0.9100 B(100-C ,109-H ) :   0.9555 
B(101-C ,102-C ) :   1.0155 B(101-C ,105-O ) :   0.9694 B(101-C ,110-H ) :   0.9572 
B(102-C ,103-C ) :   0.9912 B(102-C ,106-O ) :   0.8516 B(103-C ,107-O ) :   0.8590 
B(103-C ,143-C ) :   0.9848 B(103-C ,144-H ) :   0.9633 B(104-O ,111-H ) :   0.9561 
B(105-O ,112-H ) :   0.9417 B(113-C ,114-C ) :   1.0107 B(113-C ,122-O ) :   0.9055 
B(113-C ,124-H ) :   0.9623 B(114-C ,115-C ) :   1.0010 B(114-C ,119-O ) :   0.9262 
B(114-C ,125-H ) :   0.9602 B(115-C ,116-C ) :   1.0273 B(115-C ,120-O ) :   0.9980 
B(115-C ,126-H ) :   0.9514 B(116-C ,117-C ) :   0.9714 B(116-C ,121-O ) :   0.8391 
B(116-C ,127-H ) :   0.9465 B(117-C ,118-C ) :   1.0110 B(117-C ,122-O ) :   0.8279 
B(117-C ,128-H ) :   0.9482 B(118-C ,123-O ) :   0.9437 B(118-C ,129-H ) :   0.9646 
B(118-C ,130-H ) :   0.9884 B(119-O ,131-H ) :   0.9581 B(120-O ,132-H ) :   0.9390 
B(123-O ,133-H ) :   0.9470 B(134-C ,135-C ) :   1.3349 B(134-C ,136-N ) :   0.9692 
B(134-C ,141-C ) :   1.4285 B(135-C ,137-N ) :   0.9837 B(135-C ,142-C ) :   1.4411 
B(136-N ,138-C ) :   1.0245 B(136-N ,143-C ) :   0.8763 B(137-N ,138-C ) :   1.0375 
B(138-C ,150-N ) :   1.9085 B(141-C ,153-C ) :   1.3447 B(141-C ,157-H ) :   1.0217 
B(142-C ,152-C ) :   1.3619 B(142-C ,155-H ) :   1.0122 B(143-C ,145-H ) :   0.9606 
B(143-C ,146-H ) :   0.9949 B(147-O ,149-H ) :   0.9465 B(150-N ,151-H ) :   0.9278 
B(152-C ,153-C ) :   1.4635 B(152-C ,154-H ) :   1.0023 B(153-C ,156-H ) :   1.0017 



------------------
HIRSHFELD ANALYSIS
------------------

Total integrated alpha density =    325.999888269
Total integrated beta density  =    325.999888269

  ATOM     CHARGE      SPIN    
   0 H    0.023134    0.000000
   1 C    0.186579    0.000000
   2 C    0.087045    0.000000
   3 C    0.081774    0.000000
   4 C    0.093484    0.000000
   5 C    0.089838    0.000000
   6 C    0.076548    0.000000
   7 O   -0.248059    0.000000
   8 O   -0.282461    0.000000
   9 O   -0.209053    0.000000
  10 O   -0.222993    0.000000
  11 O   -0.239917    0.000000
  12 H    0.034064    0.000000
  13 H    0.019907    0.000000
  14 H    0.016660    0.000000
  15 H    0.021647    0.000000
  16 H    0.020914    0.000000
  17 H    0.017050    0.000000
  18 H    0.020758    0.000000
  19 H    0.171499    0.000000
  20 H    0.135533    0.000000
  21 H    0.175937    0.000000
  22 C    0.181392    0.000000
  23 C    0.088239    0.000000
  24 C    0.081456    0.000000
  25 C    0.091381    0.000000
  26 C    0.086392    0.000000
  27 C    0.071136    0.000000
  28 O   -0.245159    0.000000
  29 O   -0.205823    0.000000
  30 O   -0.226959    0.000000
  31 O   -0.289754    0.000000
  32 H    0.030669    0.000000
  33 H    0.018847    0.000000
  34 H    0.021417    0.000000
  35 H    0.014723    0.000000
  36 H    0.012834    0.000000
  37 H    0.018467    0.000000
  38 H    0.170659    0.000000
  39 H    0.134879    0.000000
  40 C    0.183462    0.000000
  41 C    0.085710    0.000000
  42 C    0.080050    0.000000
  43 C    0.088436    0.000000
  44 C    0.091889    0.000000
  45 C    0.050807    0.000000
  46 O   -0.249307    0.000000
  47 O   -0.276416    0.000000
  48 O   -0.214050    0.000000
  49 O   -0.218289    0.000000
  50 H    0.030272    0.000000
  51 H    0.020154    0.000000
  52 H    0.020042    0.000000
  53 H    0.019312    0.000000
  54 H    0.016349    0.000000
  55 H    0.168586    0.000000
  56 H    0.139360    0.000000
  57 C    0.185499    0.000000
  58 C    0.085573    0.000000
  59 C    0.082725    0.000000
  60 C    0.094848    0.000000
  61 C    0.085223    0.000000
  62 C    0.075389    0.000000
  63 O   -0.271025    0.000000
  64 O   -0.284246    0.000000
  65 O   -0.208013    0.000000
  66 O   -0.216824    0.000000
  67 O   -0.264893    0.000000
  68 H    0.029687    0.000000
  69 H    0.018458    0.000000
  70 H    0.014679    0.000000
  71 H    0.023111    0.000000
  72 H    0.011807    0.000000
  73 H    0.021531    0.000000
  74 H    0.015026    0.000000
  75 H    0.168078    0.000000
  76 H    0.138527    0.000000
  77 H    0.150725    0.000000
  78 C    0.182056    0.000000
  79 C    0.087899    0.000000
  80 C    0.084591    0.000000
  81 C    0.093113    0.000000
  82 C    0.090727    0.000000
  83 C    0.069347    0.000000
  84 O   -0.247561    0.000000
  85 O   -0.274003    0.000000
  86 O   -0.201883    0.000000
  87 O   -0.224678    0.000000
  88 O   -0.271717    0.000000
  89 H    0.031726    0.000000
  90 H    0.020412    0.000000
  91 H    0.019739    0.000000
  92 H    0.020716    0.000000
  93 H    0.017500    0.000000
  94 H    0.013101    0.000000
  95 H    0.015504    0.000000
  96 H    0.172822    0.000000
  97 H    0.161207    0.000000
  98 H    0.168982    0.000000
  99 C    0.183058    0.000000
 100 C    0.085789    0.000000
 101 C    0.080154    0.000000
 102 C    0.087515    0.000000
 103 C    0.093211    0.000000
 104 O   -0.232985    0.000000
 105 O   -0.271750    0.000000
 106 O   -0.212067    0.000000
 107 O   -0.219208    0.000000
 108 H    0.030578    0.000000
 109 H    0.021856    0.000000
 110 H    0.020880    0.000000
 111 H    0.172353    0.000000
 112 H    0.144003    0.000000
 113 C    0.185530    0.000000
 114 C    0.085195    0.000000
 115 C    0.081293    0.000000
 116 C    0.095013    0.000000
 117 C    0.087706    0.000000
 118 C    0.077429    0.000000
 119 O   -0.241383    0.000000
 120 O   -0.286871    0.000000
 121 O   -0.219457    0.000000
 122 O   -0.220611    0.000000
 123 O   -0.261037    0.000000
 124 H    0.031844    0.000000
 125 H    0.020142    0.000000
 126 H    0.013679    0.000000
 127 H    0.024721    0.000000
 128 H    0.016112    0.000000
 129 H    0.024258    0.000000
 130 H    0.018735    0.000000
 131 H    0.172656    0.000000
 132 H    0.127156    0.000000
 133 H    0.147095    0.000000
 134 C    0.048226    0.000000
 135 C    0.048881    0.000000
 136 N   -0.095209    0.000000
 137 N   -0.094982    0.000000
 138 C    0.216915    0.000000
 139 H    0.034087    0.000000
 140 H    0.023862    0.000000
 141 C   -0.045862    0.000000
 142 C   -0.037672    0.000000
 143 C    0.047866    0.000000
 144 H    0.019783    0.000000
 145 H    0.038349    0.000000
 146 H    0.030476    0.000000
 147 O   -0.280578    0.000000
 148 H    0.018205    0.000000
 149 H    0.141263    0.000000
 150 N   -0.347962    0.000000
 151 H    0.076623    0.000000
 152 C   -0.040572    0.000000
 153 C   -0.039499    0.000000
 154 H    0.027826    0.000000
 155 H    0.038478    0.000000
 156 H    0.028076    0.000000
 157 H    0.034508    0.000000

  TOTAL   0.000223    0.000000

-------
TIMINGS
-------

Total SCF time: 0 days 0 hours 2 min 40 sec 

Total time                  ....     160.462 sec
Sum of individual times     ....     154.201 sec  ( 96.1%)

Fock matrix formation       ....     123.877 sec  ( 77.2%)
Diagonalization             ....       0.708 sec  (  0.4%)
Density matrix formation    ....       0.449 sec  (  0.3%)
Population analysis         ....       6.853 sec  (  4.3%)
Initial guess               ....       2.681 sec  (  1.7%)
Orbital Transformation      ....       0.000 sec  (  0.0%)
Orbital Orthonormalization  ....       2.481 sec  (  1.5%)
DIIS solution               ....       0.742 sec  (  0.5%)
SOSCF solution              ....      13.847 sec  (  8.6%)

Maximum memory used throughout the entire SCF-calculation: 374.8 MB

-------------------------   --------------------
FINAL SINGLE POINT ENERGY     -4528.360862398553
-------------------------   --------------------

                                *** OPTIMIZATION RUN DONE ***

                            ***************************************
                            *     ORCA property calculations      *
                            ***************************************

                                    ---------------------
                                    Active property flags
                                    ---------------------
   (+) Dipole Moment


------------------------------------------------------------------------------
                       ORCA ELECTRIC PROPERTIES CALCULATION
------------------------------------------------------------------------------

Dipole Moment Calculation                       ... on
Quadrupole Moment Calculation                   ... off
Polarizability Calculation                      ... off
GBWName                                         ... bBiCyDNH_opt_orca.gbw
Electron density                                ... bBiCyDNH_opt_orca.scfp
The origin for moment calculation is the CENTER OF MASS  = (-49.576656, -55.571310 -25.556782)

-------------
DIPOLE MOMENT
-------------
                                X             Y             Z
Electronic contribution:      0.39608      -6.08933      -0.77246
Nuclear contribution   :     -1.64424       6.73787       2.36421
                        -----------------------------------------
Total Dipole Moment    :     -1.24816       0.64853       1.59175
                        -----------------------------------------
Magnitude (a.u.)       :      2.12418
Magnitude (Debye)      :      5.39925



--------------------
Rotational spectrum 
--------------------
 
Rotational constants in cm-1:     0.000861     0.000641     0.000477 
Rotational constants in MHz :    25.809069    19.204734    14.311766 

 Dipole components along the rotational axes: 
x,y,z [a.u.] :     1.099017    -1.817173    -0.046948 
x,y,z [Debye]:     2.793479    -4.618888    -0.119331 

 

Timings for individual modules:

Sum of individual times         ...     9984.532 sec (= 166.409 min)
GTO integral calculation        ...      479.758 sec (=   7.996 min)   4.8 %
SCF iterations                  ...     7161.350 sec (= 119.356 min)  71.7 %
SCF Gradient evaluation         ...     2317.632 sec (=  38.627 min)  23.2 %
Geometry relaxation             ...       25.792 sec (=   0.430 min)   0.3 %
                             ****ORCA TERMINATED NORMALLY****
TOTAL RUN TIME: 0 days 2 hours 53 minutes 17 seconds 1 msec
