
                                 *****************
                                 * O   R   C   A *
                                 *****************

                                            #,                                       
                                            ###                                      
                                            ####                                     
                                            #####                                    
                                            ######                                   
                                           ########,                                 
                                     ,,################,,,,,                         
                               ,,#################################,,                 
                          ,,##########################################,,             
                       ,#########################################, ''#####,          
                    ,#############################################,,   '####,        
                  ,##################################################,,,,####,       
                ,###########''''           ''''###############################       
              ,#####''   ,,,,##########,,,,          '''####'''          '####       
            ,##' ,,,,###########################,,,                        '##       
           ' ,,###''''                  '''############,,,                           
         ,,##''                                '''############,,,,        ,,,,,,###''
      ,#''                                            '''#######################'''  
     '                                                          ''''####''''         
             ,#######,   #######,   ,#######,      ##                                
            ,#'     '#,  ##    ##  ,#'     '#,    #''#        ######   ,####,        
            ##       ##  ##   ,#'  ##            #'  '#       #        #'  '#        
            ##       ##  #######   ##           ,######,      #####,   #    #        
            '#,     ,#'  ##    ##  '#,     ,#' ,#      #,         ##   #,  ,#        
             '#######'   ##     ##  '#######'  #'      '#     #####' # '####'        



                  #######################################################
                  #                        -***-                        #
                  #          Department of theory and spectroscopy      #
                  #    Directorship and core code : Frank Neese         #
                  #        Max Planck Institute fuer Kohlenforschung    #
                  #                Kaiser Wilhelm Platz 1               #
                  #                 D-45470 Muelheim/Ruhr               #
                  #                      Germany                        #
                  #                                                     #
                  #                  All rights reserved                #
                  #                        -***-                        #
                  #######################################################


                         Program Version 5.0.1 -  RELEASE  -


 With contributions from (in alphabetic order):
   Daniel Aravena         : Magnetic Suceptibility
   Michael Atanasov       : Ab Initio Ligand Field Theory (pilot matlab implementation)
   Alexander A. Auer      : GIAO ZORA, VPT2 properties, NMR spectrum
   Ute Becker             : Parallelization
   Giovanni Bistoni       : ED, misc. LED, open-shell LED, HFLD
   Martin Brehm           : Molecular dynamics
   Dmytro Bykov           : SCF Hessian
   Vijay G. Chilkuri      : MRCI spin determinant printing, contributions to CSF-ICE
   Dipayan Datta          : RHF DLPNO-CCSD density
   Achintya Kumar Dutta   : EOM-CC, STEOM-CC
   Dmitry Ganyushin       : Spin-Orbit,Spin-Spin,Magnetic field MRCI
   Miquel Garcia          : C-PCM and meta-GGA Hessian, CC/C-PCM, Gaussian charge scheme
   Yang Guo               : DLPNO-NEVPT2, F12-NEVPT2, CIM, IAO-localization
   Andreas Hansen         : Spin unrestricted coupled pair/coupled cluster methods
   Benjamin Helmich-Paris : MC-RPA, TRAH-SCF, COSX integrals
   Lee Huntington         : MR-EOM, pCC
   Robert Izsak           : Overlap fitted RIJCOSX, COSX-SCS-MP3, EOM
   Marcus Kettner         : VPT2
   Christian Kollmar      : KDIIS, OOCD, Brueckner-CCSD(T), CCSD density, CASPT2, CASPT2-K
   Simone Kossmann        : Meta GGA functionals, TD-DFT gradient, OOMP2, MP2 Hessian
   Martin Krupicka        : Initial AUTO-CI
   Lucas Lang             : DCDCAS
   Marvin Lechner         : AUTO-CI (C++ implementation), FIC-MRCC
   Dagmar Lenk            : GEPOL surface, SMD
   Dimitrios Liakos       : Extrapolation schemes; Compound Job, initial MDCI parallelization
   Dimitrios Manganas     : Further ROCIS development; embedding schemes
   Dimitrios Pantazis     : SARC Basis sets
   Anastasios Papadopoulos: AUTO-CI, single reference methods and gradients
   Taras Petrenko         : DFT Hessian,TD-DFT gradient, ASA, ECA, R-Raman, ABS, FL, XAS/XES, NRVS
   Peter Pinski           : DLPNO-MP2, DLPNO-MP2 Gradient
   Christoph Reimann      : Effective Core Potentials
   Marius Retegan         : Local ZFS, SOC
   Christoph Riplinger    : Optimizer, TS searches, QM/MM, DLPNO-CCSD(T), (RO)-DLPNO pert. Triples
   Tobias Risthaus        : Range-separated hybrids, TD-DFT gradient, RPA, STAB
   Michael Roemelt        : Original ROCIS implementation
   Masaaki Saitow         : Open-shell DLPNO-CCSD energy and density
   Barbara Sandhoefer     : DKH picture change effects
   Avijit Sen             : IP-ROCIS
   Kantharuban Sivalingam : CASSCF convergence, NEVPT2, FIC-MRCI
   Bernardo de Souza      : ESD, SOC TD-DFT
   Georgi Stoychev        : AutoAux, RI-MP2 NMR, DLPNO-MP2 response
   Willem Van den Heuvel  : Paramagnetic NMR
   Boris Wezisla          : Elementary symmetry handling
   Frank Wennmohs         : Technical directorship


 We gratefully acknowledge several colleagues who have allowed us to
 interface, adapt or use parts of their codes:
   Stefan Grimme, W. Hujo, H. Kruse, P. Pracht,  : VdW corrections, initial TS optimization,
                  C. Bannwarth, S. Ehlert          DFT functionals, gCP, sTDA/sTD-DF
   Ed Valeev, F. Pavosevic, A. Kumar             : LibInt (2-el integral package), F12 methods
   Garnet Chan, S. Sharma, J. Yang, R. Olivares  : DMRG
   Ulf Ekstrom                                   : XCFun DFT Library
   Mihaly Kallay                                 : mrcc  (arbitrary order and MRCC methods)
   Jiri Pittner, Ondrej Demel                    : Mk-CCSD
   Frank Weinhold                                : gennbo (NPA and NBO analysis)
   Christopher J. Cramer and Donald G. Truhlar   : smd solvation model
   Lars Goerigk                                  : TD-DFT with DH, B97 family of functionals
   V. Asgeirsson, H. Jonsson                     : NEB implementation
   FAccTs GmbH                                   : IRC, NEB, NEB-TS, DLPNO-Multilevel, CI-OPT
                                                   MM, QMMM, 2- and 3-layer-ONIOM, Crystal-QMMM,
                                                   LR-CPCM, SF, NACMEs, symmetry and pop. for TD-DFT,
                                                   nearIR, NL-DFT gradient (VV10), updates on ESD,
                                                   ML-optimized integration grids
   S Lehtola, MJT Oliveira, MAL Marques          : LibXC Library
   Liviu Ungur et al                             : ANISO software


 Your calculation uses the libint2 library for the computation of 2-el integrals
 For citations please refer to: http://libint.valeyev.net

 Your ORCA version has been built with support for libXC version: 5.1.0
 For citations please refer to: https://tddft.org/programs/libxc/

 This ORCA versions uses:
   CBLAS   interface :  Fast vector & matrix operations
   LAPACKE interface :  Fast linear algebra routines
   SCALAPACK package :  Parallel linear algebra routines
   Shared memory     :  Shared parallel matrices
   BLAS/LAPACK       :  OpenBLAS 0.3.15  USE64BITINT DYNAMIC_ARCH NO_AFFINITY SkylakeX SINGLE_THREADED
        Core in use  :  SkylakeX
   Copyright (c) 2011-2014, The OpenBLAS Project


================================================================================

----- Orbital basis set information -----
Your calculation utilizes the basis: def2-SVP
   F. Weigend and R. Ahlrichs, Phys. Chem. Chem. Phys. 7, 3297 (2005).

================================================================================
                                        WARNINGS
                       Please study these warnings very carefully!
================================================================================


WARNING: Geometry Optimization
  ===> : Switching off AutoStart
         For restart on a previous wavefunction, please use MOREAD

INFO   : the flag for use of the SHARK integral package has been found!

================================================================================
                                       INPUT FILE
================================================================================
NAME = p-fluorophenol_opt_orca.inp
|  1> ! Opt CPCM(Acetonitrile)
|  2> %cpcm
|  3> surfacetype vdw_gaussian
|  4> end
|  5> %geom MaxIter 100 end
|  6> %output 
|  7> xyzfile=True 
|  8> end 
|  9> %scf 
| 10> maxiter 250 
| 11> end
| 12> %output
| 13> Print[P_Hirshfeld] = 1
| 14> end
| 15> % maxcore
| 16> 4000
| 17> %pal nprocs 96
| 18> end
| 19> *xyz 0 1
| 20> C    0.52637560  -1.10786374   0.05366293 
| 21> C   -0.77920726  -1.14904784   0.50959812 
| 22> C   -1.51928213   0.01690062   0.51559591 
| 23> C   -0.99424906   1.22046339   0.08108487 
| 24> C    0.30963062   1.25356339  -0.37203579 
| 25> C    1.07958850   0.09095600  -0.38903773 
| 26> O    2.35180331   0.17798056  -0.84304122 
| 27> F   -2.80680545  -0.01969072   0.96370181 
| 28> H    1.11539992  -2.01341386   0.04455611 
| 29> H   -1.22061151  -2.06969213   0.85617013 
| 30> H   -1.60189661   2.11080812   0.09962379 
| 31> H    0.75139834   2.17365187  -0.71850634 
| 32> H    2.78775572  -0.68451566  -0.80137259 
| 33> *
| 34> 
| 35>                          ****END OF INPUT****
================================================================================

                       *****************************
                       * Geometry Optimization Run *
                       *****************************

Geometry optimization settings:
Update method            Update   .... BFGS
Choice of coordinates    CoordSys .... Z-matrix Internals
Initial Hessian          InHess   .... Almoef's Model

Convergence Tolerances:
Energy Change            TolE     ....  5.0000e-06 Eh
Max. Gradient            TolMAXG  ....  3.0000e-04 Eh/bohr
RMS Gradient             TolRMSG  ....  1.0000e-04 Eh/bohr
Max. Displacement        TolMAXD  ....  4.0000e-03 bohr
RMS Displacement         TolRMSD  ....  2.0000e-03 bohr
Strict Convergence                ....  False
------------------------------------------------------------------------------
                        ORCA OPTIMIZATION COORDINATE SETUP
------------------------------------------------------------------------------

The optimization will be done in new redundant internal coordinates
Making redundant internal coordinates   ...  (new redundants) done
Evaluating the initial hessian          ...  (Almloef) done
Evaluating the coordinates              ...  done
Calculating the B-matrix                .... done
Calculating the G-matrix                .... done
Diagonalizing the G-matrix              .... done
The first mode is                       ....   25
The number of degrees of freedom        ....   33

    -----------------------------------------------------------------
                    Redundant Internal Coordinates


    -----------------------------------------------------------------
         Definition                    Initial Value    Approx d2E/dq
    -----------------------------------------------------------------
      1. B(C   1,C   0)                  1.3835         0.639855   
      2. B(C   2,C   1)                  1.3810         0.645781   
      3. B(C   3,C   2)                  1.3831         0.640787   
      4. B(C   4,C   3)                  1.3808         0.646353   
      5. B(C   5,C   4)                  1.3946         0.614431   
      6. B(C   5,C   0)                  1.3926         0.618969   
      7. B(O   6,C   5)                  1.3536         0.639669   
      8. B(F   7,C   2)                  1.3638         0.572563   
      9. B(H   8,C   0)                  1.0803         0.373160   
     10. B(H   9,C   1)                  1.0782         0.376040   
     11. B(H  10,C   3)                  1.0781         0.376196   
     12. B(H  11,C   4)                  1.0779         0.376535   
     13. B(H  12,O   6)                  0.9673         0.506177   
     14. A(C   1,C   0,H   8)          119.4953         0.356950   
     15. A(C   1,C   0,C   5)          120.3499         0.436406   
     16. A(C   5,C   0,H   8)          120.1547         0.354945   
     17. A(C   0,C   1,C   2)          118.8165         0.439756   
     18. A(C   0,C   1,H   9)          121.1761         0.357417   
     19. A(C   2,C   1,H   9)          120.0073         0.357978   
     20. A(C   1,C   2,C   3)          121.9973         0.439872   
     21. A(C   3,C   2,F   7)          119.0093         0.425744   
     22. A(C   1,C   2,F   7)          118.9935         0.426336   
     23. A(C   2,C   3,H  10)          119.9524         0.357531   
     24. A(C   2,C   3,C   4)          118.8434         0.439942   
     25. A(C   4,C   3,H  10)          121.2042         0.358057   
     26. A(C   3,C   4,C   5)          120.3572         0.436622   
     27. A(C   5,C   4,H  11)          118.7797         0.355044   
     28. A(C   3,C   4,H  11)          120.8631         0.358112   
     29. A(C   0,C   5,O   6)          122.3681         0.433525   
     30. A(C   0,C   5,C   4)          119.6357         0.433232   
     31. A(C   4,C   5,O   6)          117.9963         0.432951   
     32. A(C   5,O   6,H  12)          110.5984         0.370395   
     33. D(H   9,C   1,C   0,C   5)   -179.9468         0.028445   
     34. D(H   9,C   1,C   0,H   8)     -0.0267         0.028445   
     35. D(C   2,C   1,C   0,H   8)    179.9759         0.028445   
     36. D(C   2,C   1,C   0,C   5)      0.0558         0.028445   
     37. D(F   7,C   2,C   1,C   0)    179.9702         0.029010   
     38. D(C   3,C   2,C   1,C   0)     -0.0365         0.029010   
     39. D(C   3,C   2,C   1,H   9)    179.9660         0.029010   
     40. D(F   7,C   2,C   1,H   9)     -0.0273         0.029010   
     41. D(H  10,C   3,C   2,F   7)     -0.0394         0.028533   
     42. D(H  10,C   3,C   2,C   1)    179.9673         0.028533   
     43. D(C   4,C   3,C   2,F   7)   -179.9930         0.028533   
     44. D(C   4,C   3,C   2,C   1)      0.0137         0.028533   
     45. D(H  11,C   4,C   3,C   2)    179.9725         0.029065   
     46. D(C   5,C   4,C   3,H  10)   -179.9631         0.029065   
     47. D(C   5,C   4,C   3,C   2)     -0.0102         0.029065   
     48. D(H  11,C   4,C   3,H  10)      0.0196         0.029065   
     49. D(O   6,C   5,C   4,H  11)      0.0042         0.026096   
     50. D(C   0,C   5,C   4,H  11)   -179.9532         0.026096   
     51. D(C   0,C   5,C   4,C   3)      0.0298         0.026096   
     52. D(O   6,C   5,C   0,H   8)      0.0719         0.026506   
     53. D(O   6,C   5,C   0,C   1)    179.9915         0.026506   
     54. D(O   6,C   5,C   4,C   3)    179.9873         0.026096   
     55. D(C   4,C   5,C   0,H   8)   -179.9725         0.026506   
     56. D(C   4,C   5,C   0,C   1)     -0.0529         0.026506   
     57. D(H  12,O   6,C   5,C   4)    179.5317         0.030162   
     58. D(H  12,O   6,C   5,C   0)     -0.5120         0.030162   
    -----------------------------------------------------------------

Number of atoms                         .... 13
Number of degrees of freedom            .... 58

         *************************************************************
         *                GEOMETRY OPTIMIZATION CYCLE   1            *
         *************************************************************
---------------------------------
CARTESIAN COORDINATES (ANGSTROEM)
---------------------------------
  C      0.526376   -1.107864    0.053663
  C     -0.779207   -1.149048    0.509598
  C     -1.519282    0.016901    0.515596
  C     -0.994249    1.220463    0.081085
  C      0.309631    1.253563   -0.372036
  C      1.079589    0.090956   -0.389038
  O      2.351803    0.177981   -0.843041
  F     -2.806805   -0.019691    0.963702
  H      1.115400   -2.013414    0.044556
  H     -1.220612   -2.069692    0.856170
  H     -1.601897    2.110808    0.099624
  H      0.751398    2.173652   -0.718506
  H      2.787756   -0.684516   -0.801373

----------------------------
CARTESIAN COORDINATES (A.U.)
----------------------------
  NO LB      ZA    FRAG     MASS         X           Y           Z
   0 C     6.0000    0    12.011    0.994706   -2.093559    0.101408
   1 C     6.0000    0    12.011   -1.472488   -2.171386    0.963001
   2 C     6.0000    0    12.011   -2.871027    0.031938    0.974335
   3 C     6.0000    0    12.011   -1.878858    2.306342    0.153228
   4 C     6.0000    0    12.011    0.585117    2.368891   -0.703046
   5 C     6.0000    0    12.011    2.040127    0.171882   -0.735175
   6 O     8.0000    0    15.999    4.444264    0.336335   -1.593117
   7 F     9.0000    0    18.998   -5.304094   -0.037210    1.821132
   8 H     1.0000    0     1.008    2.107800   -3.804801    0.084199
   9 H     1.0000    0     1.008   -2.306621   -3.911151    1.617927
  10 H     1.0000    0     1.008   -3.027146    3.988849    0.188262
  11 H     1.0000    0     1.008    1.419937    4.107607   -1.357780
  12 H     1.0000    0     1.008    5.268095   -1.293547   -1.514375

--------------------------------
INTERNAL COORDINATES (ANGSTROEM)
--------------------------------
 C      0   0   0     0.000000000000     0.00000000     0.00000000
 C      1   0   0     1.383517123818     0.00000000     0.00000000
 C      2   1   0     1.381007819698   118.81654530     0.00000000
 C      3   2   1     1.383120714112   121.99728384   359.96352949
 C      4   3   2     1.380766512643   118.84337446     0.00000000
 C      1   2   3     1.392550593732   120.34990892     0.05575741
 O      6   1   2     1.353596308269   122.36805906   179.99149945
 F      3   2   1     1.363764687665   118.99345870   179.97021436
 H      1   2   3     1.080302551859   119.49529814   179.97585422
 H      2   1   3     1.078209524510   121.17612134   179.99745513
 H      4   3   2     1.078096922737   119.95237093   179.96727213
 H      5   4   3     1.077851275214   120.86305751   179.97249980
 H      7   6   1     0.967310967593   110.59839660   359.48795491

---------------------------
INTERNAL COORDINATES (A.U.)
---------------------------
 C      0   0   0     0.000000000000     0.00000000     0.00000000
 C      1   0   0     2.614468465607     0.00000000     0.00000000
 C      2   1   0     2.609726568033   118.81654530     0.00000000
 C      3   2   1     2.613719359825   121.99728384   359.96352949
 C      4   3   2     2.609270563784   118.84337446     0.00000000
 C      1   2   3     2.631539249784   120.34990892     0.05575741
 O      6   1   2     2.557926318515   122.36805906   179.99149945
 F      3   2   1     2.577141770799   118.99345870   179.97021436
 H      1   2   3     2.041475964791   119.49529814   179.97585422
 H      2   1   3     2.037520716308   121.17612134   179.99745513
 H      4   3   2     2.037307929796   119.95237093   179.96727213
 H      5   4   3     2.036843723252   120.86305751   179.97249980
 H      7   6   1     1.827952815089   110.59839660   359.48795491

---------------------
BASIS SET INFORMATION
---------------------
There are 4 groups of distinct atoms

 Group   1 Type C   : 7s4p1d contracted to 3s2p1d pattern {511/31/1}
 Group   2 Type O   : 7s4p1d contracted to 3s2p1d pattern {511/31/1}
 Group   3 Type F   : 7s4p1d contracted to 3s2p1d pattern {511/31/1}
 Group   4 Type H   : 4s1p contracted to 2s1p pattern {31/1}

Atom   0C    basis set group =>   1
Atom   1C    basis set group =>   1
Atom   2C    basis set group =>   1
Atom   3C    basis set group =>   1
Atom   4C    basis set group =>   1
Atom   5C    basis set group =>   1
Atom   6O    basis set group =>   2
Atom   7F    basis set group =>   3
Atom   8H    basis set group =>   4
Atom   9H    basis set group =>   4
Atom  10H    basis set group =>   4
Atom  11H    basis set group =>   4
Atom  12H    basis set group =>   4


           ************************************************************
           *        Program running with 96 parallel MPI-processes    *
           *              working on a common directory               *
           ************************************************************
------------------------------------------------------------------------------
                           ORCA GTO INTEGRAL CALCULATION
------------------------------------------------------------------------------
------------------------------------------------------------------------------
                   ___                                                        
                  /   \      - P O W E R E D   B Y -                         
                 /     \                                                     
                 |  |  |   _    _      __       _____    __    __             
                 |  |  |  | |  | |    /  \     |  _  \  |  |  /  |          
                  \  \/   | |  | |   /    \    | | | |  |  | /  /          
                 / \  \   | |__| |  /  /\  \   | |_| |  |  |/  /          
                |  |  |   |  __  | /  /__\  \  |    /   |      \           
                |  |  |   | |  | | |   __   |  |    \   |  |\   \          
                \     /   | |  | | |  |  |  |  | |\  \  |  | \   \       
                 \___/    |_|  |_| |__|  |__|  |_| \__\ |__|  \__/        
                                                                              
                      - O R C A' S   B I G   F R I E N D -                    
                                      &                                       
                       - I N T E G R A L  F E E D E R -                       
                                                                              
 v1 FN, 2020, v2 2021                                                         
------------------------------------------------------------------------------


Reading SHARK input file p-fluorophenol_opt_orca.SHARKINP.tmp ... ok
----------------------
SHARK INTEGRAL PACKAGE
----------------------

Number of atoms                             ...     13
Number of basis functions                   ...    137
Number of shells                            ...     63
Maximum angular momentum                    ...      2
Integral batch strategy                     ... SHARK/LIBINT Hybrid
RI-J (if used) integral strategy            ... SPLIT-RIJ (Revised 2003 algorithm where possible)
Printlevel                                  ...      1
Contraction scheme used                     ... SEGMENTED contraction
Coulomb Range Separation                    ... NOT USED
Exchange Range Separation                   ... NOT USED
Finite Nucleus Model                        ... NOT USED
Auxiliary Coulomb fitting basis             ... NOT available
Auxiliary J/K fitting basis                 ... NOT available
Auxiliary Correlation fitting basis         ... NOT available
Auxiliary 'external' fitting basis          ... NOT available
Integral threshold                          ...     2.500000e-11
Primitive cut-off                           ...     2.500000e-12
Primitive pair pre-selection threshold      ...     2.500000e-12

Calculating pre-screening integrals         ... done (  0.0 sec) Dimension = 63
Organizing shell pair data                  ... done (  0.0 sec)
Shell pair information
Total number of shell pairs                 ...      2016
Shell pairs after pre-screening             ...      1908
Total number of primitive shell pairs       ...      7500
Primitive shell pairs kept                  ...      5269
          la=0 lb=0:    556 shell pairs
          la=1 lb=0:    679 shell pairs
          la=1 lb=1:    222 shell pairs
          la=2 lb=0:    255 shell pairs
          la=2 lb=1:    161 shell pairs
          la=2 lb=2:     35 shell pairs

Calculating one electron integrals          ... done (  0.0 sec)
Calculating Nuclear repulsion               ... done (  0.0 sec) ENN=    343.963457233840 Eh

SHARK setup successfully completed in   0.1 seconds

Maximum memory used throughout the entire GTOINT-calculation: 6.8 MB


           ************************************************************
           *        Program running with 96 parallel MPI-processes    *
           *              working on a common directory               *
           ************************************************************
-------------------------------------------------------------------------------
                                 ORCA SCF
-------------------------------------------------------------------------------

------------
SCF SETTINGS
------------
Hamiltonian:
 Ab initio Hamiltonian  Method          .... Hartree-Fock(GTOs)


General Settings:
 Integral files         IntName         .... p-fluorophenol_opt_orca
 Hartree-Fock type      HFTyp           .... RHF
 Total Charge           Charge          ....    0
 Multiplicity           Mult            ....    1
 Number of Electrons    NEL             ....   58
 Basis Dimension        Dim             ....  137
 Nuclear Repulsion      ENuc            ....    343.9634572338 Eh

Convergence Acceleration:
 DIIS                   CNVDIIS         .... on
   Start iteration      DIISMaxIt       ....    12
   Startup error        DIISStart       ....  0.200000
   # of expansion vecs  DIISMaxEq       ....     5
   Bias factor          DIISBfac        ....   1.050
   Max. coefficient     DIISMaxC        ....  10.000
 Trust-Rad. Augm. Hess. CNVTRAH         .... auto
   Auto Start mean grad. ratio tolernc. ....  1.125000
   Auto Start start iteration           ....    20
   Auto Start num. interpolation iter.  ....    10
   Max. Number of Micro iterations      ....    16
   Max. Number of Macro iterations      .... Maxiter - #DIIS iter
   Number of Davidson start vectors     ....     2
   Converg. threshold I  (grad. norm)   ....   1.000e-05
   Converg. threshold II (energy diff.) ....   1.000e-08
   Grad. Scal. Fac. for Micro threshold ....   0.100
   Minimum threshold for Micro iter.    ....   0.010
   NR start threshold (gradient norm)   ....   0.001
   Initial trust radius                 ....   0.400
   Minimum AH scaling param. (alpha)    ....   1.000
   Maximum AH scaling param. (alpha)    .... 1000.000
   Orbital update algorithm             .... Taylor
   White noise on init. David. guess    .... on
   Maximum white noise                  ....   0.010
   Quad. conv. algorithm                .... NR
 SOSCF                  CNVSOSCF        .... on
   Start iteration      SOSCFMaxIt      ....   150
   Startup grad/error   SOSCFStart      ....  0.003300
 Level Shifting         CNVShift        .... on
   Level shift para.    LevelShift      ....    0.2500
   Turn off err/grad.   ShiftErr        ....    0.0010
 Zerner damping         CNVZerner       .... off
 Static damping         CNVDamp         .... on
   Fraction old density DampFac         ....    0.7000
   Max. Damping (<1)    DampMax         ....    0.9800
   Min. Damping (>=0)   DampMin         ....    0.0000
   Turn off err/grad.   DampErr         ....    0.1000
 Fernandez-Rico         CNVRico         .... off

SCF Procedure:
 Maximum # iterations   MaxIter         ....   250
 SCF integral mode      SCFMode         .... Direct
   Integral package                     .... SHARK and LIBINT hybrid scheme
 Reset frequency        DirectResetFreq ....    20
 Integral Threshold     Thresh          ....  2.500e-11 Eh
 Primitive CutOff       TCut            ....  2.500e-12 Eh

Convergence Tolerance:
 Convergence Check Mode ConvCheckMode   .... Total+1el-Energy
 Convergence forced     ConvForced      .... 0
 Energy Change          TolE            ....  1.000e-08 Eh
 1-El. energy change                    ....  1.000e-05 Eh
 Orbital Gradient       TolG            ....  1.000e-05
 Orbital Rotation angle TolX            ....  1.000e-05
 DIIS Error             TolErr          ....  5.000e-07


Diagonalization of the overlap matrix:
Smallest eigenvalue                        ... 2.398e-04
Time for diagonalization                   ...    0.003 sec
Threshold for overlap eigenvalues          ... 1.000e-08
Number of eigenvalues below threshold      ... 0
Time for construction of square roots      ...    0.005 sec
Total time needed                          ...    0.013 sec

Time for model grid setup =    0.067 sec

------------------------------
INITIAL GUESS: MODEL POTENTIAL
------------------------------
Loading Hartree-Fock densities                     ... done
Calculating cut-offs                               ... done
Initializing the effective Hamiltonian             ... done
Setting up the integral package (SHARK)            ... done
Starting the Coulomb interaction                   ... done (   0.0 sec)
Reading the grid                                   ... done
Mapping shells                                     ... done
Starting the XC term evaluation                    ... done (   0.0 sec)
Transforming the Hamiltonian                       ... done (   0.0 sec)
Diagonalizing the Hamiltonian                      ... done (   0.0 sec)
Back transforming the eigenvectors                 ... done (   0.0 sec)
Now organizing SCF variables                       ... done
                      ------------------
                      INITIAL GUESS DONE (   0.1 sec)
                      ------------------
Hirshfeld charges requested but no grid available - making one
-------------------
DFT GRID GENERATION
-------------------

General Integration Accuracy     IntAcc      ... 4.388
Radial Grid Type                 RadialGrid  ... OptM3 with GC (2021)
Angular Grid (max. ang.)         AngularGrid ... 4 (Lebedev-302)
Angular grid pruning method      GridPruning ... 4 (adaptive)
Weight generation scheme         WeightScheme... Becke
Basis function cutoff            BFCut       ... 1.0000e-11
Integration weight cutoff        WCut        ... 1.0000e-14
Angular grids for H and He will be reduced by one unit
Partially contracted basis set               ... off
Rotationally invariant grid construction     ... off

Total number of grid points                  ...    64478
Total number of batches                      ...     1012
Average number of points per batch           ...       63
Average number of grid points per atom       ...     4960
Time for grid setup =    0.279 sec


--------------------
CPCM SOLVATION MODEL
--------------------
CPCM parameters:
  Epsilon                                         ...      36.6000
  Refrac                                          ...       1.3440
  Rsolv                                           ...       1.3000
  Surface type                                    ... GAUSSIAN VDW
  Epsilon function type                           ...         CPCM
Radii:
 Radius for C  used is    3.8550 Bohr (=   2.0400 Ang.)
 Radius for O  used is    3.4469 Bohr (=   1.8240 Ang.)
 Radius for F  used is    3.3335 Bohr (=   1.7640 Ang.)
 Radius for H  used is    2.4944 Bohr (=   1.3200 Ang.)
Calculating surface                               ...        done! (  0.0s)
GEPOL surface points                              ...          780
GEPOL Volume                                      ...     885.9818
GEPOL Surface-area                                ...     510.2908
Calculating surface distance matrix               ...        done! (  0.0s)
Performing Cholesky decomposition & store         ...        done! (  0.0s)
Overall time for CPCM initialization              ...                 0.0s
--------------
SCF ITERATIONS
--------------
ITER       Energy         Delta-E        Max-DP      RMS-DP      [F,P]     Damp
               ***  Starting incremental Fock matrix formation  ***
  0   -403.8748080363   0.000000000000 0.05214549  0.00307321  0.2006897 0.7000
  1   -403.9548599111  -0.080051874783 0.04399865  0.00246274  0.1264735 0.7000
                               ***Turning on DIIS***
  2   -404.0055287507  -0.050668839629 0.11327757  0.00589721  0.0745696 0.0000
  3   -403.7379032621   0.267625488633 0.02128198  0.00092260  0.0328651 0.0000
  4   -404.1144913045  -0.376588042395 0.00899276  0.00040025  0.0044571 0.0000
                      *** Initiating the SOSCF procedure ***
                           *** Shutting down DIIS ***
                      *** Re-Reading the Fockian *** 
                      *** Removing any level shift *** 
ITER      Energy       Delta-E        Grad      Rot      Max-DP    RMS-DP
  5   -404.10539044   0.0091008613  0.002226  0.002226  0.002632  0.000139
               *** Restarting incremental Fock matrix formation ***
  6   -404.11394103  -0.0085505861  0.000967  0.001503  0.001186  0.000063
  7   -404.11395875  -0.0000177207  0.000453  0.001591  0.001330  0.000063
  8   -404.11396524  -0.0000064907  0.000137  0.000343  0.000254  0.000013
  9   -404.11396594  -0.0000007014  0.000066  0.000314  0.000230  0.000011
 10   -404.11396618  -0.0000002403  0.000028  0.000098  0.000057  0.000003
 11   -404.11396620  -0.0000000210  0.000008  0.000025  0.000024  0.000001
                  ***Gradient check signals convergence***
              ***Rediagonalizing the Fockian in SOSCF/NRSCF***

               *****************************************************
               *                     SUCCESS                       *
               *           SCF CONVERGED AFTER  12 CYCLES          *
               *****************************************************


----------------
TOTAL SCF ENERGY
----------------

Total Energy       :         -404.11396621 Eh          -10996.50007 eV

Components:
Nuclear Repulsion  :          343.96345723 Eh            9359.72151 eV
Electronic Energy  :         -748.07742344 Eh          -20356.22158 eV
One Electron Energy:        -1235.12401067 Eh          -33609.43300 eV
Two Electron Energy:          487.04658723 Eh           13253.21142 eV
CPCM Dielectric    :           -0.01357933 Eh              -0.36951 eV

Virial components:
Potential Energy   :         -806.84308507 Eh          -21955.31653 eV
Kinetic Energy     :          402.72911886 Eh           10958.81646 eV
Virial Ratio       :            2.00343866

CPCM Solvation Model Properties:
Surface-charge          :           -0.01169637
Charge-correction       :            0.00011368 Eh               0.00309 eV
Free-energy (cav+disp)  :  This term is not implemented in the current solvation scheme

---------------
SCF CONVERGENCE
---------------

  Last Energy change         ...   -2.2301e-09  Tolerance :   1.0000e-08
  Last MAX-Density change    ...    8.0755e-06  Tolerance :   1.0000e-07
  Last RMS-Density change    ...    3.3420e-07  Tolerance :   5.0000e-09
  Last Orbital Gradient      ...    2.4344e-06  Tolerance :   1.0000e-05
  Last Orbital Rotation      ...    3.2136e-06  Tolerance :   1.0000e-05

             **** THE GBW FILE WAS UPDATED (p-fluorophenol_opt_orca.gbw) ****
             **** DENSITY p-fluorophenol_opt_orca.scfp WAS UPDATED ****
             **** ENERGY FILE WAS UPDATED (p-fluorophenol_opt_orca.en.tmp) ****
             **** THE GBW FILE WAS UPDATED (p-fluorophenol_opt_orca.gbw) ****
             **** DENSITY p-fluorophenol_opt_orca.scfp WAS UPDATED ****
----------------
ORBITAL ENERGIES
----------------

  NO   OCC          E(Eh)            E(eV) 
   0   2.0000     -26.297426      -715.5893 
   1   2.0000     -20.582957      -560.0907 
   2   2.0000     -11.322241      -308.0938 
   3   2.0000     -11.308973      -307.7328 
   4   2.0000     -11.250893      -306.1524 
   5   2.0000     -11.250771      -306.1490 
   6   2.0000     -11.244315      -305.9734 
   7   2.0000     -11.242655      -305.9282 
   8   2.0000      -1.593467       -43.3605 
   9   2.0000      -1.391905       -37.8757 
  10   2.0000      -1.157090       -31.4860 
  11   2.0000      -1.030351       -28.0373 
  12   2.0000      -1.003429       -27.3047 
  13   2.0000      -0.866161       -23.5694 
  14   2.0000      -0.836272       -22.7561 
  15   2.0000      -0.749771       -20.4023 
  16   2.0000      -0.742689       -20.2096 
  17   2.0000      -0.707369       -19.2485 
  18   2.0000      -0.692383       -18.8407 
  19   2.0000      -0.638859       -17.3842 
  20   2.0000      -0.622969       -16.9518 
  21   2.0000      -0.608947       -16.5703 
  22   2.0000      -0.598746       -16.2927 
  23   2.0000      -0.586565       -15.9612 
  24   2.0000      -0.558692       -15.2028 
  25   2.0000      -0.506226       -13.7751 
  26   2.0000      -0.493271       -13.4226 
  27   2.0000      -0.361298        -9.8314 
  28   2.0000      -0.320922        -8.7327 
  29   0.0000       0.116194         3.1618 
  30   0.0000       0.150342         4.0910 
  31   0.0000       0.196129         5.3369 
  32   0.0000       0.209262         5.6943 
  33   0.0000       0.232489         6.3264 
  34   0.0000       0.265640         7.2284 
  35   0.0000       0.283618         7.7176 
  36   0.0000       0.335581         9.1316 
  37   0.0000       0.358775         9.7628 
  38   0.0000       0.402901        10.9635 
  39   0.0000       0.424877        11.5615 
  40   0.0000       0.457601        12.4520 
  41   0.0000       0.478529        13.0214 
  42   0.0000       0.512507        13.9460 
  43   0.0000       0.518380        14.1058 
  44   0.0000       0.571517        15.5518 
  45   0.0000       0.602032        16.3821 
  46   0.0000       0.656853        17.8739 
  47   0.0000       0.663598        18.0574 
  48   0.0000       0.669566        18.2198 
  49   0.0000       0.683998        18.6125 
  50   0.0000       0.733441        19.9579 
  51   0.0000       0.739674        20.1275 
  52   0.0000       0.748698        20.3731 
  53   0.0000       0.770514        20.9667 
  54   0.0000       0.797520        21.7016 
  55   0.0000       0.822642        22.3852 
  56   0.0000       0.830020        22.5860 
  57   0.0000       0.858168        23.3519 
  58   0.0000       0.881254        23.9801 
  59   0.0000       0.896236        24.3878 
  60   0.0000       0.909023        24.7358 
  61   0.0000       0.920661        25.0524 
  62   0.0000       0.952626        25.9223 
  63   0.0000       0.958491        26.0819 
  64   0.0000       1.022061        27.8117 
  65   0.0000       1.035987        28.1906 
  66   0.0000       1.052726        28.6461 
  67   0.0000       1.058469        28.8024 
  68   0.0000       1.111733        30.2518 
  69   0.0000       1.173231        31.9252 
  70   0.0000       1.209019        32.8991 
  71   0.0000       1.260512        34.3003 
  72   0.0000       1.301300        35.4102 
  73   0.0000       1.336077        36.3565 
  74   0.0000       1.422057        38.6961 
  75   0.0000       1.473732        40.1023 
  76   0.0000       1.484318        40.3903 
  77   0.0000       1.488683        40.5091 
  78   0.0000       1.524023        41.4708 
  79   0.0000       1.527477        41.5648 
  80   0.0000       1.539370        41.8884 
  81   0.0000       1.544491        42.0277 
  82   0.0000       1.621918        44.1346 
  83   0.0000       1.721778        46.8520 
  84   0.0000       1.765601        48.0445 
  85   0.0000       1.778438        48.3938 
  86   0.0000       1.814546        49.3763 
  87   0.0000       1.836325        49.9689 
  88   0.0000       1.938982        52.7624 
  89   0.0000       1.956527        53.2398 
  90   0.0000       2.005123        54.5622 
  91   0.0000       2.020259        54.9740 
  92   0.0000       2.021844        55.0172 
  93   0.0000       2.025458        55.1155 
  94   0.0000       2.045063        55.6490 
  95   0.0000       2.079741        56.5926 
  96   0.0000       2.103930        57.2508 
  97   0.0000       2.111603        57.4596 
  98   0.0000       2.160387        58.7871 
  99   0.0000       2.175638        59.2021 
 100   0.0000       2.207512        60.0694 
 101   0.0000       2.274888        61.9029 
 102   0.0000       2.289391        62.2975 
 103   0.0000       2.358448        64.1766 
 104   0.0000       2.411739        65.6268 
 105   0.0000       2.427514        66.0560 
 106   0.0000       2.458401        66.8965 
 107   0.0000       2.470523        67.2264 
 108   0.0000       2.535519        68.9950 
 109   0.0000       2.583617        70.3038 
 110   0.0000       2.587353        70.4054 
 111   0.0000       2.606015        70.9133 
 112   0.0000       2.631735        71.6132 
 113   0.0000       2.674780        72.7845 
 114   0.0000       2.706838        73.6568 
 115   0.0000       2.766020        75.2672 
 116   0.0000       2.920257        79.4642 
 117   0.0000       2.952819        80.3503 
 118   0.0000       2.962466        80.6128 
 119   0.0000       2.971857        80.8683 
 120   0.0000       3.097981        84.3004 
 121   0.0000       3.207896        87.2913 
 122   0.0000       3.224733        87.7495 
 123   0.0000       3.237539        88.0979 
 124   0.0000       3.278938        89.2244 
 125   0.0000       3.286361        89.4264 
 126   0.0000       3.377948        91.9186 
 127   0.0000       3.463049        94.2343 
 128   0.0000       3.486194        94.8642 
 129   0.0000       3.534608        96.1816 
 130   0.0000       3.634609        98.9027 
 131   0.0000       3.699958       100.6810 
 132   0.0000       3.775758       102.7436 
 133   0.0000       3.931756       106.9885 
 134   0.0000       3.986820       108.4869 
 135   0.0000       4.201416       114.3263 
 136   0.0000       4.319900       117.5505 

                    ********************************
                    * MULLIKEN POPULATION ANALYSIS *
                    ********************************

-----------------------
MULLIKEN ATOMIC CHARGES
-----------------------
   0 C :   -0.103995
   1 C :   -0.083185
   2 C :    0.348730
   3 C :   -0.078483
   4 C :   -0.089020
   5 C :    0.245657
   6 O :   -0.390229
   7 F :   -0.375763
   8 H :    0.067286
   9 H :    0.076129
  10 H :    0.076001
  11 H :    0.063794
  12 H :    0.243079
Sum of atomic charges:    0.0000000

--------------------------------
MULLIKEN REDUCED ORBITAL CHARGES
--------------------------------
  0 C s       :     3.180613  s :     3.180613
      pz      :     1.030470  p :     2.880935
      px      :     0.927544
      py      :     0.922921
      dz2     :     0.004941  d :     0.042447
      dxz     :     0.006480
      dyz     :     0.005809
      dx2y2   :     0.011740
      dxy     :     0.013477
  1 C s       :     3.191678  s :     3.191678
      pz      :     0.981921  p :     2.847211
      px      :     0.935027
      py      :     0.930264
      dz2     :     0.004485  d :     0.044296
      dxz     :     0.007889
      dyz     :     0.006158
      dx2y2   :     0.011488
      dxy     :     0.014277
  2 C s       :     2.985311  s :     2.985311
      pz      :     0.985564  p :     2.576569
      px      :     0.600621
      py      :     0.990384
      dz2     :     0.008845  d :     0.089391
      dxz     :     0.016937
      dyz     :     0.010286
      dx2y2   :     0.029381
      dxy     :     0.023942
  3 C s       :     3.190355  s :     3.190355
      pz      :     0.981336  p :     2.843821
      px      :     0.932978
      py      :     0.929506
      dz2     :     0.005515  d :     0.044308
      dxz     :     0.006883
      dyz     :     0.006574
      dx2y2   :     0.011566
      dxy     :     0.013771
  4 C s       :     3.194733  s :     3.194733
      pz      :     1.016785  p :     2.851978
      px      :     0.907511
      py      :     0.927683
      dz2     :     0.004298  d :     0.042309
      dxz     :     0.007071
      dyz     :     0.005329
      dx2y2   :     0.011611
      dxy     :     0.014000
  5 C s       :     2.972687  s :     2.972687
      pz      :     0.911217  p :     2.691402
      px      :     0.744062
      py      :     1.036123
      dz2     :     0.010293  d :     0.090254
      dxz     :     0.019000
      dyz     :     0.009779
      dx2y2   :     0.026973
      dxy     :     0.024210
  6 O s       :     3.704825  s :     3.704825
      pz      :     1.828481  p :     4.670369
      px      :     1.350346
      py      :     1.491543
      dz2     :     0.002177  d :     0.015034
      dxz     :     0.003174
      dyz     :     0.000892
      dx2y2   :     0.005899
      dxy     :     0.002893
  7 F s       :     3.927662  s :     3.927662
      pz      :     1.899720  p :     5.440131
      px      :     1.585659
      py      :     1.954751
      dz2     :     0.001040  d :     0.007971
      dxz     :     0.002439
      dyz     :     0.000155
      dx2y2   :     0.003127
      dxy     :     0.001209
  8 H s       :     0.906091  s :     0.906091
      pz      :     0.003904  p :     0.026623
      px      :     0.007615
      py      :     0.015104
  9 H s       :     0.897165  s :     0.897165
      pz      :     0.005456  p :     0.026706
      px      :     0.005584
      py      :     0.015665
 10 H s       :     0.897305  s :     0.897305
      pz      :     0.003596  p :     0.026693
      px      :     0.008258
      py      :     0.014839
 11 H s       :     0.909667  s :     0.909667
      pz      :     0.005627  p :     0.026539
      px      :     0.005575
      py      :     0.015337
 12 H s       :     0.685732  s :     0.685732
      pz      :     0.015120  p :     0.071189
      px      :     0.019397
      py      :     0.036672


                     *******************************
                     * LOEWDIN POPULATION ANALYSIS *
                     *******************************

----------------------
LOEWDIN ATOMIC CHARGES
----------------------
   0 C :   -0.063035
   1 C :   -0.029154
   2 C :    0.097041
   3 C :   -0.028952
   4 C :   -0.049228
   5 C :    0.077529
   6 O :   -0.127927
   7 F :   -0.172353
   8 H :    0.041943
   9 H :    0.047285
  10 H :    0.047167
  11 H :    0.040315
  12 H :    0.119369

-------------------------------
LOEWDIN REDUCED ORBITAL CHARGES
-------------------------------
  0 C s       :     2.847301  s :     2.847301
      pz      :     1.027523  p :     3.118213
      px      :     1.051493
      py      :     1.039197
      dz2     :     0.009831  d :     0.097521
      dxz     :     0.013629
      dyz     :     0.011373
      dx2y2   :     0.028890
      dxy     :     0.033799
  1 C s       :     2.849147  s :     2.849147
      pz      :     0.984383  p :     3.079872
      px      :     1.051853
      py      :     1.043636
      dz2     :     0.008748  d :     0.100135
      dxz     :     0.016306
      dyz     :     0.011861
      dx2y2   :     0.028277
      dxy     :     0.034942
  2 C s       :     2.835150  s :     2.835150
      pz      :     0.997048  p :     2.877009
      px      :     0.774387
      py      :     1.105574
      dz2     :     0.017472  d :     0.190799
      dxz     :     0.034300
      dyz     :     0.020855
      dx2y2   :     0.063209
      dxy     :     0.054963
  3 C s       :     2.849157  s :     2.849157
      pz      :     0.983167  p :     3.079667
      px      :     1.054140
      py      :     1.042361
      dz2     :     0.011011  d :     0.100128
      dxz     :     0.014153
      dyz     :     0.012881
      dx2y2   :     0.028068
      dxy     :     0.034014
  4 C s       :     2.847064  s :     2.847064
      pz      :     1.017363  p :     3.105276
      px      :     1.047702
      py      :     1.040212
      dz2     :     0.008258  d :     0.096888
      dxz     :     0.014693
      dyz     :     0.010473
      dx2y2   :     0.028846
      dxy     :     0.034618
  5 C s       :     2.826475  s :     2.826475
      pz      :     0.930098  p :     2.908645
      px      :     0.880890
      py      :     1.097658
      dz2     :     0.019570  d :     0.187351
      dxz     :     0.037728
      dyz     :     0.019652
      dx2y2   :     0.057509
      dxy     :     0.052892
  6 O s       :     3.406368  s :     3.406368
      pz      :     1.790332  p :     4.694825
      px      :     1.371308
      py      :     1.533185
      dz2     :     0.003713  d :     0.026735
      dxz     :     0.005229
      dyz     :     0.000690
      dx2y2   :     0.010466
      dxy     :     0.006637
  7 F s       :     3.734884  s :     3.734884
      pz      :     1.893841  p :     5.426238
      px      :     1.595690
      py      :     1.936707
      dz2     :     0.001475  d :     0.011231
      dxz     :     0.003452
      dyz     :     0.000230
      dx2y2   :     0.004258
      dxy     :     0.001815
  8 H s       :     0.885952  s :     0.885952
      pz      :     0.014788  p :     0.072105
      px      :     0.020710
      py      :     0.036607
  9 H s       :     0.880817  s :     0.880817
      pz      :     0.017436  p :     0.071898
      px      :     0.016557
      py      :     0.037904
 10 H s       :     0.881013  s :     0.881013
      pz      :     0.013560  p :     0.071820
      px      :     0.022071
      py      :     0.036189
 11 H s       :     0.887330  s :     0.887330
      pz      :     0.018353  p :     0.072355
      px      :     0.016516
      py      :     0.037486
 12 H s       :     0.698886  s :     0.698886
      pz      :     0.046656  p :     0.181745
      px      :     0.044957
      py      :     0.090131


                      *****************************
                      * MAYER POPULATION ANALYSIS *
                      *****************************

  NA   - Mulliken gross atomic population
  ZA   - Total nuclear charge
  QA   - Mulliken gross atomic charge
  VA   - Mayer's total valence
  BVA  - Mayer's bonded valence
  FA   - Mayer's free valence

  ATOM       NA         ZA         QA         VA         BVA        FA
  0 C      6.1040     6.0000    -0.1040     3.8111     3.8111     0.0000
  1 C      6.0832     6.0000    -0.0832     3.8583     3.8583    -0.0000
  2 C      5.6513     6.0000     0.3487     3.6781     3.6781    -0.0000
  3 C      6.0785     6.0000    -0.0785     3.8497     3.8497     0.0000
  4 C      6.0890     6.0000    -0.0890     3.8451     3.8451     0.0000
  5 C      5.7543     6.0000     0.2457     3.8573     3.8573     0.0000
  6 O      8.3902     8.0000    -0.3902     2.0350     2.0350    -0.0000
  7 F      9.3758     9.0000    -0.3758     0.8961     0.8961     0.0000
  8 H      0.9327     1.0000     0.0673     0.9947     0.9947     0.0000
  9 H      0.9239     1.0000     0.0761     0.9924     0.9924    -0.0000
 10 H      0.9240     1.0000     0.0760     0.9924     0.9924     0.0000
 11 H      0.9362     1.0000     0.0638     0.9970     0.9970    -0.0000
 12 H      0.7569     1.0000     0.2431     0.9694     0.9694     0.0000

  Mayer bond orders larger than 0.100000
B(  0-C ,  1-C ) :   1.3743 B(  0-C ,  5-C ) :   1.3704 B(  0-C ,  8-H ) :   1.0043 
B(  1-C ,  2-C ) :   1.4089 B(  1-C ,  9-H ) :   1.0037 B(  2-C ,  3-C ) :   1.3902 
B(  2-C ,  7-F ) :   0.8544 B(  3-C ,  4-C ) :   1.3955 B(  3-C , 10-H ) :   1.0057 
B(  4-C ,  5-C ) :   1.3770 B(  4-C , 11-H ) :   1.0085 B(  5-C ,  6-O ) :   1.0687 
B(  6-O , 12-H ) :   0.9428 


------------------
HIRSHFELD ANALYSIS
------------------

Total integrated alpha density =     29.000000889
Total integrated beta density  =     29.000000889

  ATOM     CHARGE      SPIN    
   0 C   -0.047696    0.000000
   1 C   -0.033026    0.000000
   2 C    0.106192    0.000000
   3 C   -0.032591    0.000000
   4 C   -0.045977    0.000000
   5 C    0.106587    0.000000
   6 O   -0.255124    0.000000
   7 F   -0.190583    0.000000
   8 H    0.046262    0.000000
   9 H    0.051155    0.000000
  10 H    0.050876    0.000000
  11 H    0.042057    0.000000
  12 H    0.201865    0.000000

  TOTAL  -0.000002    0.000000

-------
TIMINGS
-------

Total SCF time: 0 days 0 hours 0 min 2 sec 

Total time                  ....       2.778 sec
Sum of individual times     ....       2.340 sec  ( 84.3%)

Fock matrix formation       ....       1.563 sec  ( 56.3%)
Diagonalization             ....       0.086 sec  (  3.1%)
Density matrix formation    ....       0.007 sec  (  0.2%)
Population analysis         ....       0.122 sec  (  4.4%)
Initial guess               ....       0.042 sec  (  1.5%)
Orbital Transformation      ....       0.000 sec  (  0.0%)
Orbital Orthonormalization  ....       0.000 sec  (  0.0%)
DIIS solution               ....       0.099 sec  (  3.6%)
SOSCF solution              ....       0.076 sec  (  2.7%)

Maximum memory used throughout the entire SCF-calculation: 226.4 MB

-------------------------   --------------------
FINAL SINGLE POINT ENERGY      -404.113966205515
-------------------------   --------------------



           ************************************************************
           *        Program running with 96 parallel MPI-processes    *
           *              working on a common directory               *
           ************************************************************
------------------------------------------------------------------------------
                         ORCA SCF GRADIENT CALCULATION
------------------------------------------------------------------------------

Gradient of the Hartree-Fock SCF energy:
Hartree-Fock type                ... RHF
Number of operators              ...    1
Number of atoms                  ...   13
Basis set dimensions             ...  137
Integral neglect threshold       ... 2.5e-11
Integral primitive cutoff        ... 2.5e-12
SHARK Integral package           ... ON

Nuc. rep. gradient       (SHARK) ... done (  0.0 sec)
HCore & Overlap gradient (SHARK) ... done (  0.0 sec)
Two-Electron gradient    (SHARK) ... done (  0.2 sec)

------------------
CARTESIAN GRADIENT
------------------

   1   C   :   -0.005113754   -0.002140431    0.002173595
   2   C   :    0.007241343   -0.006278519   -0.001065696
   3   C   :    0.019521461    0.001507714   -0.007045676
   4   C   :    0.005378542    0.005086681   -0.002793510
   5   C   :   -0.006878066    0.003564590    0.001578100
   6   C   :   -0.004112085    0.000230908    0.001421741
   7   O   :   -0.001772695    0.019489720   -0.003789052
   8   F   :   -0.022861799   -0.000867757    0.007993452
   9   H   :   -0.001802861    0.001167771    0.000345273
  10   H   :    0.000882237    0.002085041   -0.000728839
  11   H   :    0.001421908   -0.002102391   -0.000069663
  12   H   :   -0.000519945   -0.002790706    0.000740843
  13   H   :    0.008615714   -0.018952621    0.001239431

Difference to translation invariance:
           :    0.0000000000    0.0000000000   -0.0000000000

Difference to rotation invariance:
           :   -0.0000407046    0.0005539303    0.0001515723

Norm of the cartesian gradient     ...    0.0463747529
RMS gradient                       ...    0.0074259036
MAX gradient                       ...    0.0228617995

-------
TIMINGS
-------

Total SCF gradient time            ...        0.468 sec

One electron gradient       ....       0.006 sec  (  1.3%)
Two electron gradient       ....       0.221 sec  ( 47.3%)
CPCM gradient               ....       0.075 sec  ( 15.9%)
   A-Matrix (El+Nuc)        ....       0.027 sec  (  5.9%)
   Potential                ....       0.047 sec  ( 10.1%)

Maximum memory used throughout the entire SCFGRAD-calculation: 14.2 MB
------------------------------------------------------------------------------
                         ORCA GEOMETRY RELAXATION STEP
------------------------------------------------------------------------------

Reading the OPT-File                    .... done
Getting information on internals        .... done
Copying old internal coords+grads       .... done
Making the new internal coordinates     .... (new redundants).... done
Validating the new internal coordinates .... (new redundants).... done
Calculating the B-matrix                .... done
Calculating the G,G- and P matrices     .... done
Transforming gradient to internals      .... done
Projecting the internal gradient        .... done
Number of atoms                         ....  13
Number of internal coordinates          ....  58
Current Energy                          ....  -404.113966206 Eh
Current gradient norm                   ....     0.046374753 Eh/bohr
Maximum allowed component of the step   ....  0.300
Current trust radius                    ....  0.300
Evaluating the initial hessian          ....  (Almloef) done
Projecting the Hessian                  .... done
Forming the augmented Hessian           .... done
Diagonalizing the augmented Hessian     .... done
Last element of RFO vector              ....  0.997961967
Lowest eigenvalues of augmented Hessian:
 -0.002213897  0.026507172  0.027241668  0.027418410  0.027684797
Length of the computed step             ....  0.063941850
The final length of the internal step   ....  0.063941850
Converting the step to cartesian space:
 Initial RMS(Int)=    0.0083959763
Transforming coordinates:
 Iter   0:  RMS(Cart)=    0.0101369463 RMS(Int)=    1.8445233195
 Iter   1:  RMS(Cart)=    0.0000366835 RMS(Int)=    0.0000178157
 Iter   2:  RMS(Cart)=    0.0000007726 RMS(Int)=    0.0000003970
 Iter   3:  RMS(Cart)=    0.0000000164 RMS(Int)=    0.0000000085
done
Storing new coordinates                 .... done

                                .--------------------.
          ----------------------|Geometry convergence|-------------------------
          Item                value                   Tolerance       Converged
          ---------------------------------------------------------------------
          RMS gradient        0.0045780306            0.0001000000      NO
          MAX gradient        0.0242333511            0.0003000000      NO
          RMS step            0.0083959763            0.0020000000      NO
          MAX step            0.0421612951            0.0040000000      NO
          ........................................................
          Max(Bonds)      0.0223      Max(Angles)    0.26
          Max(Dihed)        0.07      Max(Improp)    0.00
          ---------------------------------------------------------------------

The optimization has not yet converged - more geometry cycles are needed


    ---------------------------------------------------------------------------
                         Redundant Internal Coordinates
                            (Angstroem and degrees)

        Definition                    Value    dE/dq     Step     New-Value
    ----------------------------------------------------------------------------
     1. B(C   1,C   0)                1.3835 -0.006345  0.0052    1.3887   
     2. B(C   2,C   1)                1.3810  0.003881 -0.0032    1.3778   
     3. B(C   3,C   2)                1.3831  0.003144 -0.0026    1.3805   
     4. B(C   4,C   3)                1.3808 -0.005792  0.0047    1.3855   
     5. B(C   5,C   4)                1.3946  0.001970 -0.0016    1.3929   
     6. B(C   5,C   0)                1.3926  0.002126 -0.0018    1.3908   
     7. B(O   6,C   5)                1.3536  0.007319 -0.0060    1.3476   
     8. B(F   7,C   2)                1.3638  0.024233 -0.0223    1.3415   
     9. B(H   8,C   0)                1.0803 -0.001965  0.0028    1.0831   
    10. B(H   9,C   1)                1.0782 -0.002376  0.0033    1.0815   
    11. B(H  10,C   3)                1.0781 -0.002539  0.0036    1.0816   
    12. B(H  11,C   4)                1.0779 -0.002833  0.0040    1.0818   
    13. B(H  12,O   6)                0.9673  0.020840 -0.0217    0.9456   
    14. A(C   1,C   0,H   8)          119.50 -0.001342    0.20    119.70   
    15. A(C   1,C   0,C   5)          120.35  0.000768   -0.10    120.25   
    16. A(C   5,C   0,H   8)          120.15  0.000574   -0.10    120.05   
    17. A(C   0,C   1,C   2)          118.82 -0.000413    0.05    118.87   
    18. A(C   0,C   1,H   9)          121.18  0.000325   -0.04    121.13   
    19. A(C   2,C   1,H   9)          120.01  0.000088   -0.01    120.00   
    20. A(C   1,C   2,C   3)          122.00 -0.000339    0.03    122.03   
    21. A(C   3,C   2,F   7)          119.01  0.000445   -0.05    118.96   
    22. A(C   1,C   2,F   7)          118.99 -0.000106    0.02    119.02   
    23. A(C   2,C   3,H  10)          119.95  0.000134   -0.01    119.94   
    24. A(C   2,C   3,C   4)          118.84 -0.000257    0.03    118.87   
    25. A(C   4,C   3,H  10)          121.20  0.000123   -0.01    121.19   
    26. A(C   3,C   4,C   5)          120.36  0.000559   -0.07    120.29   
    27. A(C   5,C   4,H  11)          118.78 -0.001059    0.16    118.94   
    28. A(C   3,C   4,H  11)          120.86  0.000500   -0.09    120.77   
    29. A(C   0,C   5,O   6)          122.37 -0.000595    0.07    122.44   
    30. A(C   0,C   5,C   4)          119.64 -0.000320    0.06    119.69   
    31. A(C   4,C   5,O   6)          118.00  0.000915   -0.13    117.87   
    32. A(C   5,O   6,H  12)          110.60 -0.001700    0.26    110.86   
    33. D(H   9,C   1,C   0,C   5)   -179.95 -0.000014    0.03   -179.92   
    34. D(H   9,C   1,C   0,H   8)     -0.03  0.000001   -0.00     -0.03   
    35. D(C   2,C   1,C   0,H   8)    179.98  0.000030   -0.06    179.92   
    36. D(C   2,C   1,C   0,C   5)      0.06  0.000016   -0.03      0.03   
    37. D(F   7,C   2,C   1,C   0)    179.97 -0.000037    0.07    180.04   
    38. D(C   3,C   2,C   1,C   0)     -0.04 -0.000032    0.06      0.02   
    39. D(C   3,C   2,C   1,H   9)    179.97 -0.000003    0.00    179.97   
    40. D(F   7,C   2,C   1,H   9)     -0.03 -0.000008    0.01     -0.01   
    41. D(H  10,C   3,C   2,F   7)     -0.04 -0.000007    0.01     -0.03   
    42. D(H  10,C   3,C   2,C   1)    179.97 -0.000012    0.02    179.99   
    43. D(C   4,C   3,C   2,F   7)   -179.99  0.000035   -0.06   -180.06   
    44. D(C   4,C   3,C   2,C   1)      0.01  0.000030   -0.06     -0.04   
    45. D(H  11,C   4,C   3,C   2)    179.97 -0.000031    0.06    180.03   
    46. D(C   5,C   4,C   3,H  10)   -179.96  0.000030   -0.06   -180.02   
    47. D(C   5,C   4,C   3,C   2)     -0.01 -0.000013    0.02      0.01   
    48. D(H  11,C   4,C   3,H  10)      0.02  0.000012   -0.02     -0.00   
    49. D(O   6,C   5,C   4,H  11)      0.00 -0.000008    0.02      0.02   
    50. D(C   0,C   5,C   4,H  11)   -179.95  0.000014   -0.03   -179.98   
    51. D(C   0,C   5,C   4,C   3)      0.03 -0.000003    0.01      0.03   
    52. D(O   6,C   5,C   0,H   8)      0.07  0.000010   -0.02      0.05   
    53. D(O   6,C   5,C   0,C   1)    179.99  0.000023   -0.05    179.94   
    54. D(O   6,C   5,C   4,C   3)    179.99 -0.000025    0.05    180.04   
    55. D(C   4,C   5,C   0,H   8)   -179.97 -0.000013    0.03   -179.95   
    56. D(C   4,C   5,C   0,C   1)     -0.05  0.000001   -0.00     -0.05   
    57. D(H  12,O   6,C   5,C   4)    179.53 -0.000002    0.00    179.53   
    58. D(H  12,O   6,C   5,C   0)     -0.51 -0.000025    0.05     -0.47   
    ----------------------------------------------------------------------------

         *************************************************************
         *                GEOMETRY OPTIMIZATION CYCLE   2            *
         *************************************************************
---------------------------------
CARTESIAN COORDINATES (ANGSTROEM)
---------------------------------
  C      0.526918   -1.109846    0.053436
  C     -0.783947   -1.147951    0.510379
  C     -1.520474    0.016435    0.516057
  C     -0.995391    1.216959    0.081588
  C      0.313038    1.249469   -0.372885
  C      1.080280    0.087015   -0.388847
  O      2.347077    0.174554   -0.839941
  F     -2.786765   -0.016784    0.957535
  H      1.118563   -2.016995    0.044327
  H     -1.228106   -2.070506    0.858703
  H     -1.604160    2.110826    0.100619
  H      0.755619    2.173581   -0.719945
  H      2.777248   -0.666655   -0.801028

----------------------------
CARTESIAN COORDINATES (A.U.)
----------------------------
  NO LB      ZA    FRAG     MASS         X           Y           Z
   0 C     6.0000    0    12.011    0.995731   -2.097305    0.100979
   1 C     6.0000    0    12.011   -1.481445   -2.169313    0.964476
   2 C     6.0000    0    12.011   -2.873280    0.031058    0.975207
   3 C     6.0000    0    12.011   -1.881016    2.299719    0.154179
   4 C     6.0000    0    12.011    0.591557    2.361153   -0.704651
   5 C     6.0000    0    12.011    2.041433    0.164434   -0.734815
   6 O     8.0000    0    15.999    4.435333    0.329860   -1.587258
   7 F     9.0000    0    18.998   -5.266223   -0.031718    1.809480
   8 H     1.0000    0     1.008    2.113778   -3.811569    0.083767
   9 H     1.0000    0     1.008   -2.320785   -3.912690    1.622714
  10 H     1.0000    0     1.008   -3.031424    3.988882    0.190142
  11 H     1.0000    0     1.008    1.427914    4.107473   -1.360498
  12 H     1.0000    0     1.008    5.248239   -1.259795   -1.513723

--------------------------------
INTERNAL COORDINATES (ANGSTROEM)
--------------------------------
 C      0   0   0     0.000000000000     0.00000000     0.00000000
 C      1   0   0     1.388746203877     0.00000000     0.00000000
 C      2   1   0     1.377788045066   118.86586713     0.00000000
 C      3   2   1     1.380483127418   122.02681513     0.00000000
 C      4   3   2     1.385492803405   118.87153553   359.95819201
 C      1   2   3     1.390790921418   120.25240996     0.02681929
 O      6   1   2     1.347562067515   122.43789478   179.94392139
 F      3   2   1     1.341453891180   119.01560467   180.03774926
 H      1   2   3     1.083072866009   119.69718245   179.91969927
 H      2   1   3     1.081533871629   121.13255562   180.05199344
 H      4   3   2     1.081646942795   119.93743066   179.98911718
 H      5   4   3     1.081809354539   120.77275785   180.02915731
 H      7   6   1     0.945618533954   110.85974207   359.53381324

---------------------------
INTERNAL COORDINATES (A.U.)
---------------------------
 C      0   0   0     0.000000000000     0.00000000     0.00000000
 C      1   0   0     2.624349994850     0.00000000     0.00000000
 C      2   1   0     2.603642075766   118.86586713     0.00000000
 C      3   2   1     2.608735043318   122.02681513     0.00000000
 C      4   3   2     2.618201958955   118.87153553   359.95819201
 C      1   2   3     2.628213951024   120.25240996     0.02681929
 O      6   1   2     2.546523256063   122.43789478   179.94392139
 F      3   2   1     2.534980475613   119.01560467   180.03774926
 H      1   2   3     2.046711099838   119.69718245   179.91969927
 H      2   1   3     2.043802821938   121.13255562   180.05199344
 H      4   3   2     2.044016495476   119.93743066   179.98911718
 H      5   4   3     2.044323409193   120.77275785   180.02915731
 H      7   6   1     1.786960056333   110.85974207   359.53381324



           ************************************************************
           *        Program running with 96 parallel MPI-processes    *
           *              working on a common directory               *
           ************************************************************
------------------------------------------------------------------------------
                   ___                                                        
                  /   \      - P O W E R E D   B Y -                         
                 /     \                                                     
                 |  |  |   _    _      __       _____    __    __             
                 |  |  |  | |  | |    /  \     |  _  \  |  |  /  |          
                  \  \/   | |  | |   /    \    | | | |  |  | /  /          
                 / \  \   | |__| |  /  /\  \   | |_| |  |  |/  /          
                |  |  |   |  __  | /  /__\  \  |    /   |      \           
                |  |  |   | |  | | |   __   |  |    \   |  |\   \          
                \     /   | |  | | |  |  |  |  | |\  \  |  | \   \       
                 \___/    |_|  |_| |__|  |__|  |_| \__\ |__|  \__/        
                                                                              
                      - O R C A' S   B I G   F R I E N D -                    
                                      &                                       
                       - I N T E G R A L  F E E D E R -                       
                                                                              
 v1 FN, 2020, v2 2021                                                         
------------------------------------------------------------------------------


Reading SHARK input file p-fluorophenol_opt_orca.SHARKINP.tmp ... ok
----------------------
SHARK INTEGRAL PACKAGE
----------------------

Number of atoms                             ...     13
Number of basis functions                   ...    137
Number of shells                            ...     63
Maximum angular momentum                    ...      2
Integral batch strategy                     ... SHARK/LIBINT Hybrid
RI-J (if used) integral strategy            ... SPLIT-RIJ (Revised 2003 algorithm where possible)
Printlevel                                  ...      1
Contraction scheme used                     ... SEGMENTED contraction
Coulomb Range Separation                    ... NOT USED
Exchange Range Separation                   ... NOT USED
Finite Nucleus Model                        ... NOT USED
Auxiliary Coulomb fitting basis             ... NOT available
Auxiliary J/K fitting basis                 ... NOT available
Auxiliary Correlation fitting basis         ... NOT available
Auxiliary 'external' fitting basis          ... NOT available
Integral threshold                          ...     2.500000e-11
Primitive cut-off                           ...     2.500000e-12
Primitive pair pre-selection threshold      ...     2.500000e-12

Calculating pre-screening integrals         ... done (  0.0 sec) Dimension = 63
Organizing shell pair data                  ... done (  0.0 sec)
Shell pair information
Total number of shell pairs                 ...      2016
Shell pairs after pre-screening             ...      1908
Total number of primitive shell pairs       ...      7500
Primitive shell pairs kept                  ...      5273
          la=0 lb=0:    556 shell pairs
          la=1 lb=0:    679 shell pairs
          la=1 lb=1:    222 shell pairs
          la=2 lb=0:    255 shell pairs
          la=2 lb=1:    161 shell pairs
          la=2 lb=2:     35 shell pairs

Calculating one electron integrals          ... done (  0.0 sec)
Calculating Nuclear repulsion               ... done (  0.0 sec) ENN=    344.942480896350 Eh

SHARK setup successfully completed in   0.1 seconds

Maximum memory used throughout the entire GTOINT-calculation: 6.8 MB


           ************************************************************
           *        Program running with 96 parallel MPI-processes    *
           *              working on a common directory               *
           ************************************************************

Diagonalization of the overlap matrix:
Smallest eigenvalue                        ... 2.396e-04
Time for diagonalization                   ...    0.004 sec
Threshold for overlap eigenvalues          ... 1.000e-08
Number of eigenvalues below threshold      ... 0
Time for construction of square roots      ...    0.005 sec
Total time needed                          ...    0.012 sec


--------------------
CPCM SOLVATION MODEL
--------------------
CPCM parameters:
  Epsilon                                         ...      36.6000
  Refrac                                          ...       1.3440
  Rsolv                                           ...       1.3000
  Surface type                                    ... GAUSSIAN VDW
  Epsilon function type                           ...         CPCM
Radii:
 Radius for C  used is    3.8550 Bohr (=   2.0400 Ang.)
 Radius for O  used is    3.4469 Bohr (=   1.8240 Ang.)
 Radius for F  used is    3.3335 Bohr (=   1.7640 Ang.)
 Radius for H  used is    2.4944 Bohr (=   1.3200 Ang.)
Calculating surface                               ...        done! (  0.0s)
GEPOL surface points                              ...          779
GEPOL Volume                                      ...     884.1390
GEPOL Surface-area                                ...     509.2039
Calculating surface distance matrix               ...        done! (  0.0s)
Performing Cholesky decomposition & store         ...        done! (  0.0s)
Overall time for CPCM initialization              ...                 0.0s
--------------
SCF ITERATIONS
--------------
ITER       Energy         Delta-E        Max-DP      RMS-DP      [F,P]     Damp
               ***  Starting incremental Fock matrix formation  ***
  0   -404.1147276796   0.000000000000 0.00360197  0.00010525  0.0089923 0.7000
                      *** Initiating the SOSCF procedure ***
                      *** Re-Reading the Fockian *** 
                      *** Removing any level shift *** 
ITER      Energy       Delta-E        Grad      Rot      Max-DP    RMS-DP
  1   -404.11484654  -0.0001188596  0.000476  0.000476  0.010198  0.000283
               *** Restarting incremental Fock matrix formation ***
  2   -404.11517059  -0.0003240474  0.000823  0.001210  0.001920  0.000061
  3   -404.11519257  -0.0000219810  0.000324  0.000520  0.000831  0.000032
  4   -404.11519614  -0.0000035697  0.000080  0.000128  0.000181  0.000008
  5   -404.11519641  -0.0000002736  0.000049  0.000190  0.000175  0.000006
  6   -404.11519650  -0.0000000901  0.000019  0.000076  0.000053  0.000002
  7   -404.11519651  -0.0000000132  0.000009  0.000033  0.000022  0.000001
                  ***Gradient check signals convergence***
              ***Rediagonalizing the Fockian in SOSCF/NRSCF***

               *****************************************************
               *                     SUCCESS                       *
               *           SCF CONVERGED AFTER   8 CYCLES          *
               *****************************************************

Total Energy       :         -404.11519652 Eh          -10996.53355 eV
  Last Energy change         ...   -2.6118e-09  Tolerance :   1.0000e-08
  Last MAX-Density change    ...    9.7601e-06  Tolerance :   1.0000e-07
             **** THE GBW FILE WAS UPDATED (p-fluorophenol_opt_orca.gbw) ****
             **** DENSITY p-fluorophenol_opt_orca.scfp WAS UPDATED ****
             **** ENERGY FILE WAS UPDATED (p-fluorophenol_opt_orca.en.tmp) ****
             **** THE GBW FILE WAS UPDATED (p-fluorophenol_opt_orca.gbw) ****
             **** DENSITY p-fluorophenol_opt_orca.scfp WAS UPDATED ****
Total SCF time: 0 days 0 hours 0 min 1 sec 

Maximum memory used throughout the entire SCF-calculation: 226.3 MB

-------------------------   --------------------
FINAL SINGLE POINT ENERGY      -404.115196516886
-------------------------   --------------------



           ************************************************************
           *        Program running with 96 parallel MPI-processes    *
           *              working on a common directory               *
           ************************************************************
------------------------------------------------------------------------------
                         ORCA SCF GRADIENT CALCULATION
------------------------------------------------------------------------------

Gradient of the Hartree-Fock SCF energy:
Hartree-Fock type                ... RHF
Number of operators              ...    1
Number of atoms                  ...   13
Basis set dimensions             ...  137
Integral neglect threshold       ... 2.5e-11
Integral primitive cutoff        ... 2.5e-12
SHARK Integral package           ... ON

Nuc. rep. gradient       (SHARK) ... done (  0.0 sec)
HCore & Overlap gradient (SHARK) ... done (  0.0 sec)
Two-Electron gradient    (SHARK) ... done (  0.2 sec)

------------------
CARTESIAN GRADIENT
------------------

   1   C   :   -0.001110547    0.000699724    0.000227983
   2   C   :    0.000283695   -0.001145347    0.000149618
   3   C   :    0.008802177    0.000832298   -0.003190079
   4   C   :   -0.000352361    0.000028729    0.000124240
   5   C   :   -0.001650639   -0.000231328    0.000611111
   6   C   :   -0.000735780   -0.000356923    0.000315480
   7   O   :    0.003129103   -0.001238569   -0.000829468
   8   F   :   -0.006174846   -0.000272108    0.002206472
   9   H   :   -0.000324731   -0.000351186    0.000187784
  10   H   :   -0.000156089   -0.000032610    0.000084989
  11   H   :   -0.000105127    0.000097372    0.000021230
  12   H   :    0.000513339   -0.000076405   -0.000167581
  13   H   :   -0.002118194    0.002046353    0.000258220

Difference to translation invariance:
           :   -0.0000000000    0.0000000000    0.0000000000

Difference to rotation invariance:
           :   -0.0000655500    0.0005667124    0.0000983751

Norm of the cartesian gradient     ...    0.0126506237
RMS gradient                       ...    0.0020257210
MAX gradient                       ...    0.0088021773

-------
TIMINGS
-------

Total SCF gradient time            ...        0.434 sec

One electron gradient       ....       0.008 sec  (  1.9%)
Two electron gradient       ....       0.211 sec  ( 48.6%)
CPCM gradient               ....       0.075 sec  ( 17.2%)
   A-Matrix (El+Nuc)        ....       0.026 sec  (  6.1%)
   Potential                ....       0.048 sec  ( 11.1%)

Maximum memory used throughout the entire SCFGRAD-calculation: 14.2 MB
------------------------------------------------------------------------------
                         ORCA GEOMETRY RELAXATION STEP
------------------------------------------------------------------------------

Reading the OPT-File                    .... done
Getting information on internals        .... done
Copying old internal coords+grads       .... done
Making the new internal coordinates     .... (new redundants).... done
Validating the new internal coordinates .... (new redundants).... done
Calculating the B-matrix                .... done
Calculating the G,G- and P matrices     .... done
Transforming gradient to internals      .... done
Projecting the internal gradient        .... done
Number of atoms                         ....  13
Number of internal coordinates          ....  58
Current Energy                          ....  -404.115196517 Eh
Current gradient norm                   ....     0.012650624 Eh/bohr
Maximum allowed component of the step   ....  0.300
Current trust radius                    ....  0.300
Updating the Hessian (BFGS)             .... done
Forming the augmented Hessian           .... done
Diagonalizing the augmented Hessian     .... done
Last element of RFO vector              ....  0.999827597
Lowest eigenvalues of augmented Hessian:
 -0.000148027  0.026507102  0.027241795  0.027418451  0.027685144
[...]
----------------
ORBITAL ENERGIES
----------------

  NO   OCC          E(Eh)            E(eV) 
   0   2.0000     -26.301960      -715.7127 
   1   2.0000     -20.580845      -560.0333 
   2   2.0000     -11.320394      -308.0436 
   3   2.0000     -11.306987      -307.6787 
   4   2.0000     -11.249190      -306.1060 
   5   2.0000     -11.249003      -306.1009 
   6   2.0000     -11.243740      -305.9577 
   7   2.0000     -11.242114      -305.9135 
   8   2.0000      -1.609941       -43.8087 
   9   2.0000      -1.398258       -38.0485 
  10   2.0000      -1.155011       -31.4295 
  11   2.0000      -1.027183       -27.9511 
  12   2.0000      -1.004784       -27.3416 
  13   2.0000      -0.868321       -23.6282 
  14   2.0000      -0.840227       -22.8637 
  15   2.0000      -0.754006       -20.5175 
  16   2.0000      -0.750078       -20.4107 
  17   2.0000      -0.712609       -19.3911 
  18   2.0000      -0.702568       -19.1179 
  19   2.0000      -0.639853       -17.4113 
  20   2.0000      -0.622724       -16.9452 
  21   2.0000      -0.605203       -16.4684 
  22   2.0000      -0.600512       -16.3408 
  23   2.0000      -0.585402       -15.9296 
  24   2.0000      -0.558134       -15.1876 
  25   2.0000      -0.504515       -13.7286 
  26   2.0000      -0.491056       -13.3623 
  27   2.0000      -0.358730        -9.7615 
  28   2.0000      -0.319117        -8.6836 
  29   0.0000       0.115777         3.1505 
  30   0.0000       0.154166         4.1951 
  31   0.0000       0.197820         5.3830 
  32   0.0000       0.210800         5.7361 
  33   0.0000       0.233037         6.3413 
  34   0.0000       0.265779         7.2322 
  35   0.0000       0.283942         7.7265 
  36   0.0000       0.343867         9.3571 
  37   0.0000       0.360557         9.8113 
  38   0.0000       0.405148        11.0246 
  39   0.0000       0.426143        11.5960 
  40   0.0000       0.457126        12.4390 
  41   0.0000       0.479648        13.0519 
  42   0.0000       0.516209        14.0468 
  43   0.0000       0.518089        14.0979 
  44   0.0000       0.572802        15.5867 
  45   0.0000       0.608994        16.5716 
  46   0.0000       0.658624        17.9221 
  47   0.0000       0.664331        18.0774 
  48   0.0000       0.672670        18.3043 
  49   0.0000       0.684580        18.6284 
  50   0.0000       0.739611        20.1258 
  51   0.0000       0.741348        20.1731 
  52   0.0000       0.748513        20.3681 
  53   0.0000       0.780279        21.2325 
  54   0.0000       0.802163        21.8280 
  55   0.0000       0.822838        22.3906 
  56   0.0000       0.830263        22.5926 
  57   0.0000       0.864303        23.5189 
  58   0.0000       0.884826        24.0773 
  59   0.0000       0.895381        24.3646 
  60   0.0000       0.908205        24.7135 
  61   0.0000       0.920205        25.0401 
  62   0.0000       0.954662        25.9777 
  63   0.0000       0.963603        26.2210 
  64   0.0000       1.022038        27.8111 
  65   0.0000       1.033886        28.1335 
  66   0.0000       1.051157        28.6034 
  67   0.0000       1.058152        28.7938 
  68   0.0000       1.110698        30.2236 
  69   0.0000       1.172228        31.8979 
  70   0.0000       1.206798        32.8386 
  71   0.0000       1.262039        34.3418 
  72   0.0000       1.304139        35.4874 
  73   0.0000       1.334042        36.3011 
  74   0.0000       1.424456        38.7614 
  75   0.0000       1.475125        40.1402 
  76   0.0000       1.484950        40.4076 
  77   0.0000       1.489836        40.5405 
  78   0.0000       1.524471        41.4830 
  79   0.0000       1.529726        41.6260 
  80   0.0000       1.533921        41.7401 
  81   0.0000       1.545494        42.0550 
  82   0.0000       1.623364        44.1740 
  83   0.0000       1.723276        46.8927 
  84   0.0000       1.773299        48.2539 
  85   0.0000       1.778391        48.3925 
  86   0.0000       1.817398        49.4539 
  87   0.0000       1.834646        49.9233 
  88   0.0000       1.939470        52.7757 
  89   0.0000       1.958305        53.2882 
  90   0.0000       2.004616        54.5484 
  91   0.0000       2.020028        54.9677 
  92   0.0000       2.020889        54.9912 
  93   0.0000       2.024140        55.0796 
  94   0.0000       2.044341        55.6293 
  95   0.0000       2.085915        56.7606 
  96   0.0000       2.106165        57.3117 
  97   0.0000       2.111636        57.4605 
  98   0.0000       2.160077        58.7787 
  99   0.0000       2.175823        59.2071 
 100   0.0000       2.206317        60.0369 
 101   0.0000       2.274311        61.8871 
 102   0.0000       2.287959        62.2585 
 103   0.0000       2.357845        64.1602 
 104   0.0000       2.423692        65.9520 
 105   0.0000       2.428861        66.0927 
 106   0.0000       2.456805        66.8531 
 107   0.0000       2.472415        67.2778 
 108   0.0000       2.558607        69.6232 
 109   0.0000       2.588196        70.4284 
 110   0.0000       2.588734        70.4430 
 111   0.0000       2.604969        70.8848 
 112   0.0000       2.643595        71.9359 
 113   0.0000       2.668748        72.6203 
 114   0.0000       2.711914        73.7949 
 115   0.0000       2.760243        75.1100 
 116   0.0000       2.917958        79.4017 
 117   0.0000       2.950013        80.2739 
 118   0.0000       2.959733        80.5384 
 119   0.0000       2.971500        80.8586 
 120   0.0000       3.092951        84.1635 
 121   0.0000       3.204094        87.1878 
 122   0.0000       3.219200        87.5989 
 123   0.0000       3.234480        88.0147 
 124   0.0000       3.287157        89.4481 
 125   0.0000       3.288572        89.4866 
 126   0.0000       3.397036        92.4381 
 127   0.0000       3.460650        94.1691 
 128   0.0000       3.483919        94.8022 
 129   0.0000       3.528723        96.0214 
 130   0.0000       3.640492        99.0628 
 131   0.0000       3.729762       101.4920 
 132   0.0000       3.792878       103.2094 
 133   0.0000       3.962091       107.8140 
 134   0.0000       4.018742       109.3555 
 135   0.0000       4.230847       115.1272 
 136   0.0000       4.345258       118.2405 

                    ********************************
                    * MULLIKEN POPULATION ANALYSIS *
                    ********************************

-----------------------
MULLIKEN ATOMIC CHARGES
-----------------------
   0 C :   -0.105804
   1 C :   -0.096291
   2 C :    0.353202
   3 C :   -0.092554
   4 C :   -0.092411
   5 C :    0.240010
   6 O :   -0.370089
   7 F :   -0.349627
   8 H :    0.067489
   9 H :    0.076185
  10 H :    0.076106
  11 H :    0.064685
  12 H :    0.229100
Sum of atomic charges:   -0.0000000

--------------------------------
MULLIKEN REDUCED ORBITAL CHARGES
--------------------------------
  0 C s       :     3.183439  s :     3.183439
      pz      :     1.031001  p :     2.880098
      px      :     0.925679
      py      :     0.923418
      dz2     :     0.004939  d :     0.042266
      dxz     :     0.006402
      dyz     :     0.005848
      dx2y2   :     0.011610
      dxy     :     0.013468
  1 C s       :     3.194282  s :     3.194282
      pz      :     0.988012  p :     2.858066
      px      :     0.936547
      py      :     0.933508
      dz2     :     0.004424  d :     0.043942
      dxz     :     0.007773
      dyz     :     0.006146
      dx2y2   :     0.011428
      dxy     :     0.014172
  2 C s       :     2.973843  s :     2.973843
      pz      :     0.978517  p :     2.577693
      px      :     0.617356
      py      :     0.981820
      dz2     :     0.009521  d :     0.095262
      dxz     :     0.018587
      dyz     :     0.010534
      dx2y2   :     0.030926
      dxy     :     0.025694
  3 C s       :     3.193229  s :     3.193229
      pz      :     0.986649  p :     2.855378
      px      :     0.935702
      py      :     0.933027
      dz2     :     0.005462  d :     0.043946
      dxz     :     0.006790
      dyz     :     0.006517
      dx2y2   :     0.011441
      dxy     :     0.013736
  4 C s       :     3.197467  s :     3.197467
      pz      :     1.016926  p :     2.852832
      px      :     0.909666
      py      :     0.926240
      dz2     :     0.004274  d :     0.042113
      dxz     :     0.007026
      dyz     :     0.005340
      dx2y2   :     0.011606
      dxy     :     0.013866
  5 C s       :     2.971217  s :     2.971217
      pz      :     0.913506  p :     2.697218
      px      :     0.747426
      py      :     1.036286
      dz2     :     0.010458  d :     0.091555
      dxz     :     0.019371
      dyz     :     0.009850
      dx2y2   :     0.027338
      dxy     :     0.024538
  6 O s       :     3.689003  s :     3.689003
      pz      :     1.826935  p :     4.665763
      px      :     1.345666
      py      :     1.493162
      dz2     :     0.002231  d :     0.015324
      dxz     :     0.003189
      dyz     :     0.000913
      dx2y2   :     0.005884
      dxy     :     0.003108
  7 F s       :     3.917780  s :     3.917780
      pz      :     1.893487  p :     5.423085
      px      :     1.576576
      py      :     1.953022
      dz2     :     0.001147  d :     0.008762
      dxz     :     0.002684
      dyz     :     0.000178
      dx2y2   :     0.003362
      dxy     :     0.001390
  8 H s       :     0.906015  s :     0.906015
      pz      :     0.003887  p :     0.026496
      px      :     0.007607
      py      :     0.015002
  9 H s       :     0.897295  s :     0.897295
      pz      :     0.005435  p :     0.026520
      px      :     0.005494
      py      :     0.015591
 10 H s       :     0.897401  s :     0.897401
      pz      :     0.003581  p :     0.026494
      px      :     0.008105
      py      :     0.014808
 11 H s       :     0.908948  s :     0.908948
      pz      :     0.005570  p :     0.026367
      px      :     0.005438
      py      :     0.015359
 12 H s       :     0.697174  s :     0.697174
      pz      :     0.016175  p :     0.073726
      px      :     0.020679
      py      :     0.036872


                     *******************************
                     * LOEWDIN POPULATION ANALYSIS *
                     *******************************

----------------------
LOEWDIN ATOMIC CHARGES
----------------------
   0 C :   -0.063848
   1 C :   -0.033988
   2 C :    0.082181
   3 C :   -0.033392
   4 C :   -0.050014
   5 C :    0.072350
   6 O :   -0.111062
   7 F :   -0.142792
   8 H :    0.041925
   9 H :    0.046669
  10 H :    0.046567
  11 H :    0.040597
  12 H :    0.104806

-------------------------------
LOEWDIN REDUCED ORBITAL CHARGES
-------------------------------
  0 C s       :     2.848831  s :     2.848831
      pz      :     1.028512  p :     3.118101
      px      :     1.050057
      py      :     1.039532
      dz2     :     0.009798  d :     0.096916
      dxz     :     0.013483
      dyz     :     0.011398
      dx2y2   :     0.028641
      dxy     :     0.033596
  1 C s       :     2.850760  s :     2.850760
      pz      :     0.989093  p :     3.083957
      px      :     1.051012
      py      :     1.043851
      dz2     :     0.008620  d :     0.099271
      dxz     :     0.016060
      dyz     :     0.011812
      dx2y2   :     0.028280
      dxy     :     0.034500
  2 C s       :     2.828466  s :     2.828466
      pz      :     0.990708  p :     2.885137
      px      :     0.789955
      py      :     1.104474
      dz2     :     0.019023  d :     0.204216
      dxz     :     0.037947
      dyz     :     0.021479
      dx2y2   :     0.066470
      dxy     :     0.059297
  3 C s       :     2.851101  s :     2.851101
      pz      :     0.987403  p :     3.083074
      px      :     1.053422
      py      :     1.042249
      dz2     :     0.010883  d :     0.099217
      dxz     :     0.013989
      dyz     :     0.012717
      dx2y2   :     0.027869
      dxy     :     0.033759
  4 C s       :     2.848999  s :     2.848999
      pz      :     1.017466  p :     3.104769
      px      :     1.047322
      py      :     1.039981
      dz2     :     0.008187  d :     0.096247
      dxz     :     0.014584
      dyz     :     0.010467
      dx2y2   :     0.028894
      dxy     :     0.034115
  5 C s       :     2.823975  s :     2.823975
      pz      :     0.931950  p :     2.913106
      px      :     0.882801
      py      :     1.098355
      dz2     :     0.019968  d :     0.190569
      dxz     :     0.038610
      dyz     :     0.019849
      dx2y2   :     0.058269
      dxy     :     0.053873
  6 O s       :     3.389712  s :     3.389712
      pz      :     1.785570  p :     4.693581
      px      :     1.367877
      py      :     1.540134
      dz2     :     0.003897  d :     0.027769
      dxz     :     0.005326
      dyz     :     0.000681
      dx2y2   :     0.010628
      dxy     :     0.007236
  7 F s       :     3.717684  s :     3.717684
      pz      :     1.887022  p :     5.412441
      px      :     1.594006
      py      :     1.931413
      dz2     :     0.001660  d :     0.012667
      dxz     :     0.003878
      dyz     :     0.000272
      dx2y2   :     0.004714
      dxy     :     0.002143
  8 H s       :     0.886372  s :     0.886372
      pz      :     0.014684  p :     0.071702
      px      :     0.020691
      py      :     0.036328
  9 H s       :     0.881897  s :     0.881897
      pz      :     0.017395  p :     0.071434
      px      :     0.016351
      py      :     0.037688
 10 H s       :     0.882110  s :     0.882110
      pz      :     0.013520  p :     0.071323
      px      :     0.021718
      py      :     0.036085
 11 H s       :     0.887643  s :     0.887643
      pz      :     0.018127  p :     0.071760
      px      :     0.016178
      py      :     0.037455
 12 H s       :     0.704173  s :     0.704173
      pz      :     0.050623  p :     0.191022
      px      :     0.048305
      py      :     0.092094


                      *****************************
                      * MAYER POPULATION ANALYSIS *
                      *****************************

  NA   - Mulliken gross atomic population
  ZA   - Total nuclear charge
  QA   - Mulliken gross atomic charge
  VA   - Mayer's total valence
  BVA  - Mayer's bonded valence
  FA   - Mayer's free valence

  ATOM       NA         ZA         QA         VA         BVA        FA
  0 C      6.1058     6.0000    -0.1058     3.8117     3.8117    -0.0000
  1 C      6.0963     6.0000    -0.0963     3.8576     3.8576     0.0000
  2 C      5.6468     6.0000     0.3532     3.7012     3.7012    -0.0000
  3 C      6.0926     6.0000    -0.0926     3.8529     3.8529    -0.0000
  4 C      6.0924     6.0000    -0.0924     3.8458     3.8458    -0.0000
  5 C      5.7600     6.0000     0.2400     3.8643     3.8643    -0.0000
  6 O      8.3701     8.0000    -0.3701     2.0487     2.0487    -0.0000
  7 F      9.3496     9.0000    -0.3496     0.9232     0.9232     0.0000
  8 H      0.9325     1.0000     0.0675     0.9947     0.9947    -0.0000
  9 H      0.9238     1.0000     0.0762     0.9922     0.9922    -0.0000
 10 H      0.9239     1.0000     0.0761     0.9921     0.9921     0.0000
 11 H      0.9353     1.0000     0.0647     0.9965     0.9965    -0.0000
 12 H      0.7709     1.0000     0.2291     0.9802     0.9802    -0.0000

  Mayer bond orders larger than 0.100000
B(  0-C ,  1-C ) :   1.3707 B(  0-C ,  5-C ) :   1.3753 B(  0-C ,  8-H ) :   1.0041 
B(  1-C ,  2-C ) :   1.4121 B(  1-C ,  9-H ) :   1.0023 B(  2-C ,  3-C ) :   1.3886 
B(  2-C ,  7-F ) :   0.8791 B(  3-C ,  4-C ) :   1.3992 B(  3-C , 10-H ) :   1.0041 
B(  4-C ,  5-C ) :   1.3734 B(  4-C , 11-H ) :   1.0081 B(  5-C ,  6-O ) :   1.0746 
B(  6-O , 12-H ) :   0.9520 


------------------
HIRSHFELD ANALYSIS
------------------

Total integrated alpha density =     28.999999291
Total integrated beta density  =     28.999999291

  ATOM     CHARGE      SPIN    
   0 C   -0.048797    0.000000
   1 C   -0.036782    0.000000
   2 C    0.104843    0.000000
   3 C   -0.036142    0.000000
   4 C   -0.047000    0.000000
   5 C    0.104981    0.000000
   6 O   -0.251985    0.000000
   7 F   -0.173380    0.000000
   8 H    0.045738    0.000000
   9 H    0.049317    0.000000
  10 H    0.049131    0.000000
  11 H    0.041646    0.000000
  12 H    0.198432    0.000000

  TOTAL   0.000001    0.000000

-------
TIMINGS
-------

Total SCF time: 0 days 0 hours 0 min 1 sec 

Total time                  ....       1.234 sec
Sum of individual times     ....       0.815 sec  ( 66.1%)

Fock matrix formation       ....       0.338 sec  ( 27.4%)
Diagonalization             ....       0.012 sec  (  1.0%)
Density matrix formation    ....       0.004 sec  (  0.4%)
Population analysis         ....       0.123 sec  ( 10.0%)
Initial guess               ....       0.008 sec  (  0.7%)
Orbital Transformation      ....       0.000 sec  (  0.0%)
Orbital Orthonormalization  ....       0.004 sec  (  0.3%)
DIIS solution               ....       0.009 sec  (  0.7%)
SOSCF solution              ....       0.023 sec  (  1.9%)

Maximum memory used throughout the entire SCF-calculation: 226.3 MB

-------------------------   --------------------
FINAL SINGLE POINT ENERGY      -404.115292824864
-------------------------   --------------------

                                *** OPTIMIZATION RUN DONE ***

                            ***************************************
                            *     ORCA property calculations      *
                            ***************************************

                                    ---------------------
                                    Active property flags
                                    ---------------------
   (+) Dipole Moment


------------------------------------------------------------------------------
                       ORCA ELECTRIC PROPERTIES CALCULATION
------------------------------------------------------------------------------

Dipole Moment Calculation                       ... on
Quadrupole Moment Calculation                   ... off
Polarizability Calculation                      ... off
GBWName                                         ... p-fluorophenol_opt_orca.gbw
Electron density                                ... p-fluorophenol_opt_orca.scfp
The origin for moment calculation is the CENTER OF MASS  = (-0.509073,  0.096555  0.152885)

-------------
DIPOLE MOMENT
-------------
                                X             Y             Z
Electronic contribution:     -4.50761      -0.08416       1.56006
Nuclear contribution   :      5.34669      -0.61495      -1.69310
                        -----------------------------------------
Total Dipole Moment    :      0.83908      -0.69911      -0.13304
                        -----------------------------------------
Magnitude (a.u.)       :      1.10023
Magnitude (Debye)      :      2.79656



--------------------
Rotational spectrum 
--------------------
 
Rotational constants in cm-1:     0.190048     0.049087     0.039011 
Rotational constants in MHz :  5697.508293  1471.578460  1169.512066 

 Dipole components along the rotational axes: 
x,y,z [a.u.] :     0.819093     0.734548     0.005364 
x,y,z [Debye]:     2.081969     1.867073     0.013634 

 

Timings for individual modules:

Sum of individual times         ...      248.404 sec (=   4.140 min)
GTO integral calculation        ...       88.864 sec (=   1.481 min)  35.8 %
SCF iterations                  ...       90.156 sec (=   1.503 min)  36.3 %
SCF Gradient evaluation         ...       69.242 sec (=   1.154 min)  27.9 %
Geometry relaxation             ...        0.143 sec (=   0.002 min)   0.1 %
                             ****ORCA TERMINATED NORMALLY****
TOTAL RUN TIME: 0 days 0 hours 5 minutes 16 seconds 509 msec
