      -----------------------------------------------------------      
     |                   =====================                   |     
     |                           x T B                           |     
     |                   =====================                   |     
     |                         S. Grimme                         |     
     |          Mulliken Center for Theoretical Chemistry        |     
     |                    University of Bonn                     |     
      -----------------------------------------------------------      

   * xtb version 6.4.1 (bd6e46d) compiled by 'conda@4901f00b25ba' on 2021-06-10

   xtb is free software: you can redistribute it and/or modify it under
   the terms of the GNU Lesser General Public License as published by
   the Free Software Foundation, either version 3 of the License, or
   (at your option) any later version.
   
   xtb is distributed in the hope that it will be useful,
   but WITHOUT ANY WARRANTY; without even the implied warranty of
   MERCHANTABILITY or FITNESS FOR A PARTICULAR PURPOSE.  See the
   GNU Lesser General Public License for more details.
   
   Cite this work as:
   * C. Bannwarth, E. Caldeweyher, S. Ehlert, A. Hansen, P. Pracht,
     J. Seibert, S. Spicher, S. Grimme, WIREs Comput. Mol. Sci., 2020, 11,
     e01493. DOI: 10.1002/wcms.1493
   
   for GFN2-xTB:
   * C. Bannwarth, S. Ehlert and S. Grimme., J. Chem. Theory Comput., 2019,
     15, 1652-1671. DOI: 10.1021/acs.jctc.8b01176
   for GFN1-xTB:
   * S. Grimme, C. Bannwarth, P. Shushkov, J. Chem. Theory Comput., 2017,
     13, 1989-2009. DOI: 10.1021/acs.jctc.7b00118
   for GFN0-xTB:
   * P. Pracht, E. Caldeweyher, S. Ehlert, S. Grimme, ChemRxiv, 2019, preprint.
     DOI: 10.26434/chemrxiv.8326202.v1
   for GFN-FF:
   * S. Spicher and S. Grimme, Angew. Chem. Int. Ed., 2020, 59, 15665-15673.
     DOI: 10.1002/anie.202004239
   
   for DFT-D4:
   * E. Caldeweyher, C. Bannwarth and S. Grimme, J. Chem. Phys., 2017,
     147, 034112. DOI: 10.1063/1.4993215
   * E. Caldeweyher, S. Ehlert, A. Hansen, H. Neugebauer, S. Spicher,
     C. Bannwarth and S. Grimme, J. Chem. Phys., 2019, 150, 154122.
     DOI: 10.1063/1.5090222
   * E. Caldeweyher, J.-M. Mewes, S. Ehlert and S. Grimme, Phys. Chem. Chem. Phys.
     2020, 22, 8499-8512. DOI: 10.1039/D0CP00502A
   
   for sTDA-xTB:
   * S. Grimme and C. Bannwarth, J. Chem. Phys., 2016, 145, 054103.
     DOI: 10.1063/1.4959605
   
   in the mass-spec context:
   * V. Asgeirsson, C. Bauer and S. Grimme, Chem. Sci., 2017, 8, 4879.
     DOI: 10.1039/c7sc00601b
   * J. Koopman and S. Grimme, ACS Omega 2019, 4, 12, 15120-15133.
     DOI: 10.1021/acsomega.9b02011
   
   for metadynamics refer to:
   * S. Grimme, J. Chem. Theory Comput., 2019, 155, 2847-2862
     DOI: 10.1021/acs.jctc.9b00143
   
   for SPH calculations refer to:
   * S. Spicher and S. Grimme, J. Chem. Theory Comput., 2021, 17, 1701-1714
     DOI: 10.1021/acs.jctc.0c01306
   
   with help from (in alphabetical order)
   P. Atkinson, C. Bannwarth, F. Bohle, G. Brandenburg, E. Caldeweyher
   M. Checinski, S. Dohm, S. Ehlert, S. Ehrlich, I. Gerasimov, J. Koopman
   C. Lavigne, S. Lehtola, F. März, M. Müller, F. Musil, H. Neugebauer
   J. Pisarek, C. Plett, P. Pracht, J. Seibert, P. Shushkov, S. Spicher
   M. Stahn, M. Steiner, T. Strunk, J. Stückrath, T. Rose, and J. Unsleber
   
 * started run on 2022/03/02 at 03:03:23.241     

           -------------------------------------------------
          |                Calculation Setup                |
           -------------------------------------------------

          program call               : /jet/home/maihfly/.conda/envs/Cyclodextrins-Env/bin/xtb p-fluorophenolate_opt_xtb.xyz --chrg -1 --uhf 0 --opt --gbsa Acetonitrile
          hostname                   : e001
          coordinate file            : p-fluorophenolate_opt_xtb.xyz
          omp threads                :                    96
          number of atoms            :                    12
          number of electrons        :                    42
          charge                     :                    -1
          spin                       :                   0.0
          first test random number   :      0.67064891157017

   ID    Z sym.   atoms
    1    6 C      1-6
    2    8 O      7
    3    9 F      8
    4    1 H      9-12

           -------------------------------------------------
          |                 G F N 2 - x T B                 |
           -------------------------------------------------

        Reference                      10.1021/acs.jctc.8b01176
      * Hamiltonian:
        H0-scaling (s, p, d)           1.850000    2.230000    2.230000
        zeta-weighting                 0.500000
      * Dispersion:
        s8                             2.700000
        a1                             0.520000
        a2                             5.000000
        s9                             5.000000
      * Repulsion:
        kExp                           1.500000    1.000000
        rExp                           1.000000
      * Coulomb:
        alpha                          2.000000
        third order                    shell-resolved
        anisotropic                    true
        a3                             3.000000
        a5                             4.000000
        cn-shift                       1.200000
        cn-exp                         4.000000
        max-rad                        5.000000

      * Solvation model:               GBSA
        Solvent                        Acetonitrile
        Parameter file                 internal GFN2-xTB/GBSA
        Dielectric constant                3.7500E+01
        Reference state                gsolv [1 M gas/solution]
        Free energy shift                  2.0473E-03 Eh       1.2847E+00 kcal/mol
        Temperature                        2.9815E+02 K
        Density                            7.8600E-01 kg/L
        Solvent mass                       4.1050E+01 g/mol
        Interaction kernel             Still
        Born radius scaling (c1)           1.5800E+00
        Born radii integrator          GBOBC
        Born offset                        1.3788E-02 a0       2.6056E-02 AA
        H-bond correction              true
        Ion screening                  false
        Surface tension                    1.0000E-05 Eh       1.5569E+01 dyn/cm
        Grid points                               230 per atom

          ...................................................
          :                      SETUP                      :
          :.................................................:
          :  # basis functions                  36          :
          :  # atomic orbitals                  36          :
          :  # shells                           20          :
          :  # electrons                        42          :
          :  max. iterations                   250          :
          :  Hamiltonian                  GFN2-xTB          :
          :  restarted?                      false          :
          :  GBSA solvation                   true          :
          :  PC potential                    false          :
          :  electronic temp.          300.0000000     K    :
          :  accuracy                    1.0000000          :
          :  -> integral cutoff          0.2500000E+02      :
          :  -> integral neglect         0.1000000E-07      :
          :  -> SCF convergence          0.1000000E-05 Eh   :
          :  -> wf. convergence          0.1000000E-03 e    :
          :  Broyden damping             0.4000000          :
          ...................................................

 iter      E             dE          RMSdq      gap      omega  full diag
   1    -24.1802754 -0.241803E+02  0.561E+00    4.08       0.0  T
   2    -24.2576656 -0.773902E-01  0.287E+00    3.22       1.0  T
   3    -24.2587567 -0.109107E-02  0.132E+00    2.84       1.0  T
   4    -24.2637033 -0.494659E-02  0.626E-01    2.87       1.0  T
   5    -24.2650782 -0.137498E-02  0.100E-01    2.95       1.0  T
   6    -24.2650982 -0.199435E-04  0.540E-02    2.93       1.0  T
   7    -24.2651072 -0.896196E-05  0.255E-02    2.95       1.1  T
   8    -24.2651072 -0.403958E-07  0.124E-02    2.96       2.3  T
   9    -24.2651081 -0.878737E-06  0.264E-03    2.95      10.9  T
  10    -24.2651081 -0.112304E-07  0.148E-03    2.95      19.5  T
  11    -24.2651081 -0.555303E-08  0.441E-04    2.95      65.4  T
  12    -24.2651081 -0.132409E-08  0.164E-04    2.95     176.2  T

   *** convergence criteria satisfied after 12 iterations ***

         #    Occupation            Energy/Eh            Energy/eV
      -------------------------------------------------------------
         1        2.0000           -0.8003130             -21.7776
       ...           ...                  ...                  ...
        15        2.0000           -0.4492834             -12.2256
        16        2.0000           -0.4055706             -11.0361
        17        2.0000           -0.4016732             -10.9301
        18        2.0000           -0.3939468             -10.7198
        19        2.0000           -0.3832170             -10.4279
        20        2.0000           -0.3079569              -8.3799
        21        2.0000           -0.3076099              -8.3705 (HOMO)
        22                         -0.1992802              -5.4227 (LUMO)
        23                         -0.1735606              -4.7228
        24                         -0.0535771              -1.4579
        25                          0.0703941               1.9155
        26                          0.1346149               3.6631
       ...                                ...                  ...
        36                          0.7049362              19.1823
      -------------------------------------------------------------
                  HL-Gap            0.1083297 Eh            2.9478 eV
             Fermi-level           -0.2534451 Eh           -6.8966 eV

 SCC (total)                   0 d,  0 h,  0 min,  0.535 sec
 SCC setup                      ...        0 min,  0.014 sec (  2.699%)
 Dispersion                     ...        0 min,  0.019 sec (  3.564%)
 classical contributions        ...        0 min,  0.009 sec (  1.750%)
 integral evaluation            ...        0 min,  0.029 sec (  5.384%)
 iterations                     ...        0 min,  0.370 sec ( 69.283%)
 molecular gradient             ...        0 min,  0.092 sec ( 17.242%)
 printout                       ...        0 min,  0.000 sec (  0.025%)

         :::::::::::::::::::::::::::::::::::::::::::::::::::::
         ::                     SUMMARY                     ::
         :::::::::::::::::::::::::::::::::::::::::::::::::::::
         :: total energy             -23.960323361821 Eh    ::
         :: total w/o Gsasa/hb       -23.954350073193 Eh    ::
         :: gradient norm              0.143141275135 Eh/a0 ::
         :: HOMO-LUMO gap              2.947801671125 eV    ::
         ::.................................................::
         :: SCC energy               -24.265108087675 Eh    ::
         :: -> isotropic ES            0.190722386553 Eh    ::
         :: -> anisotropic ES          0.009527767063 Eh    ::
         :: -> anisotropic XC          0.002042979334 Eh    ::
         :: -> dispersion             -0.009753290436 Eh    ::
         :: -> Gsolv                  -0.092456233611 Eh    ::
         ::    -> Gelec               -0.086482944983 Eh    ::
         ::    -> Gsasa               -0.008001093689 Eh    ::
         ::    -> Ghb                 -0.000019470291 Eh    ::
         ::    -> Gshift               0.002047275352 Eh    ::
         :: repulsion energy           0.304775592804 Eh    ::
         :: add. restraining           0.000000000000 Eh    ::
         :: total charge              -1.000000000000 e     ::
         :::::::::::::::::::::::::::::::::::::::::::::::::::::

      ----------------------------------------------------------- 
     |                   =====================                   |
     |                        A N C O P T                        |
     |                   =====================                   |
     |               Approximate Normal Coordinate               |
     |                Rational Function Optimizer                |
      ----------------------------------------------------------- 

          ...................................................
          :                      SETUP                      :
          :.................................................:
          :   optimization level            normal          :
          :   max. optcycles                   200          :
          :   ANC micro-cycles                  20          :
          :   degrees of freedom                30          :
          :.................................................:
          :   RF solver                   davidson          :
          :   write xtbopt.log                true          :
          :   linear?                        false          :
          :   energy convergence         0.5000000E-05 Eh   :
          :   grad. convergence          0.1000000E-02 Eh/α :
          :   maximium RF displ.         1.0000000          :
          :   Hlow (freq-cutoff)         0.1000000E-01      :
          :   Hmax (freq-cutoff)         5.0000000          :
          :   S6 in model hess.         20.0000000          :
          ...................................................

generating ANC from model Hessian ...
Using Lindh-Hessian (1995)
 Shifting diagonal of input Hessian by    0.0000000000000000     
 Lowest  eigenvalues of input Hessian
    0.000000    0.000000    0.000000    0.000000    0.000000    0.000000
    0.013975    0.016336    0.024365    0.027468    0.069871    0.076753
    0.090148    0.096911    0.102031    0.103693    0.111792    0.132965
 Highest eigenvalues
    1.478712    1.644146    1.787553    1.935552    2.032617    2.158976


........................................................................
.............................. CYCLE    1 ..............................
........................................................................
   1    -24.2651081 -0.242651E+02  0.785E-05    2.95       0.0  T
   2    -24.2651081 -0.949996E-11  0.508E-05    2.95     567.8  T
   3    -24.2651081 -0.238032E-11  0.321E-05    2.95     898.7  T
     SCC iter.                  ...        0 min,  0.092 sec
     gradient                   ...        0 min,  0.093 sec
 * total energy  :   -23.9603234 Eh     change       -0.1048086E-09 Eh
   gradient norm :     0.1431406 Eh/α   predicted     0.0000000E+00 (-100.00%)
   displ. norm   :     0.1062805 α      lambda       -0.1307157E-01
   maximum displ.:     0.0551336 α      in ANC's #27, #24, #21, ...

........................................................................
.............................. CYCLE    2 ..............................
........................................................................
   1    -24.2658377 -0.242658E+02  0.443E-01    2.84       0.0  T
   2    -24.2673959 -0.155814E-02  0.225E-01    3.09       1.0  T
   3    -24.2676450 -0.249170E-03  0.101E-01    3.08       1.0  T
   4    -24.2676505 -0.544485E-05  0.541E-02    3.08       1.0  T
   5    -24.2676542 -0.375884E-05  0.154E-02    3.09       1.9  T
   6    -24.2676545 -0.293015E-06  0.505E-03    3.09       5.7  T
   7    -24.2676547 -0.179856E-06  0.163E-03    3.09      17.7  T
   8    -24.2676547  0.573259E-09  0.947E-04    3.09      30.5  T
   9    -24.2676547 -0.406650E-08  0.166E-04    3.09     174.2  T
     SCC iter.                  ...        0 min,  0.276 sec
     gradient                   ...        0 min,  0.089 sec
 * total energy  :   -23.9703315 Eh     change       -0.1000809E-01 Eh
   gradient norm :     0.0771007 Eh/α   predicted    -0.6609608E-02 ( -33.96%)
   displ. norm   :     0.1126386 α      lambda       -0.7745312E-02
   maximum displ.:     0.0669746 α      in ANC's #27, #24, #21, ...

........................................................................
.............................. CYCLE    3 ..............................
........................................................................
   1    -24.2704505 -0.242705E+02  0.569E-01    3.01       0.0  T
   2    -24.2728968 -0.244627E-02  0.280E-01    3.20       1.0  T
   3    -24.2732975 -0.400694E-03  0.127E-01    3.20       1.0  T
   4    -24.2733093 -0.118441E-04  0.659E-02    3.20       1.0  T
   5    -24.2733138 -0.442426E-05  0.205E-02    3.20       1.4  T
   6    -24.2733145 -0.789252E-06  0.687E-03    3.20       4.2  T
   7    -24.2733149 -0.316814E-06  0.158E-03    3.20      18.3  T
   8    -24.2733149 -0.509802E-08  0.110E-03    3.20      26.3  T
   9    -24.2733149 -0.259593E-08  0.195E-04    3.20     147.9  T
  10    -24.2733149 -0.887290E-10  0.106E-04    3.20     271.2  T
     SCC iter.                  ...        0 min,  0.306 sec
     gradient                   ...        0 min,  0.093 sec
 * total energy  :   -23.9733187 Eh     change       -0.2987254E-02 Eh
   gradient norm :     0.0286508 Eh/α   predicted    -0.3921790E-02 (  31.28%)
   displ. norm   :     0.0385038 α      lambda       -0.8830088E-03
   maximum displ.:     0.0196901 α      in ANC's #13, #21, #16, ...

........................................................................
.............................. CYCLE    4 ..............................
........................................................................
   1    -24.2700602 -0.242701E+02  0.139E-01    3.25       0.0  T
   2    -24.2702376 -0.177409E-03  0.864E-02    3.19       1.0  T
   3    -24.2702737 -0.360929E-04  0.383E-02    3.20       1.0  T
   4    -24.2702737 -0.308267E-07  0.191E-02    3.20       1.5  T
   5    -24.2702744 -0.615593E-06  0.548E-03    3.19       5.3  T
   6    -24.2702744 -0.824688E-07  0.211E-03    3.20      13.7  T
   7    -24.2702745 -0.152500E-07  0.868E-04    3.20      33.3  T
   8    -24.2702745  0.917666E-10  0.521E-04    3.20      55.4  T
     SCC iter.                  ...        0 min,  0.242 sec
     gradient                   ...        0 min,  0.089 sec
 * total energy  :   -23.9737336 Eh     change       -0.4149346E-03 Eh
   gradient norm :     0.0055980 Eh/α   predicted    -0.4421575E-03 (   6.56%)
   displ. norm   :     0.0113613 α      lambda       -0.3589199E-04
   maximum displ.:     0.0073358 α      in ANC's #8, #13, #27, ...

........................................................................
.............................. CYCLE    5 ..............................
........................................................................
   1    -24.2704601 -0.242705E+02  0.300E-02    3.20       0.0  T
   2    -24.2704621 -0.204656E-05  0.160E-02    3.20       1.8  T
   3    -24.2704626 -0.434649E-06  0.942E-03    3.20       3.1  T
   4    -24.2704627 -0.153260E-06  0.247E-03    3.20      11.7  T
   5    -24.2704627 -0.926988E-08  0.597E-04    3.20      48.4  T
   6    -24.2704627 -0.121559E-08  0.201E-04    3.20     143.8  T
     SCC iter.                  ...        0 min,  0.187 sec
     gradient                   ...        0 min,  0.091 sec
 * total energy  :   -23.9737581 Eh     change       -0.2441793E-04 Eh
   gradient norm :     0.0021192 Eh/α   predicted    -0.1794775E-04 ( -26.50%)
   displ. norm   :     0.0084451 α      lambda       -0.9564757E-05
   maximum displ.:     0.0057699 α      in ANC's #8, #13, #10, ...

........................................................................
.............................. CYCLE    6 ..............................
........................................................................
   1    -24.2706367 -0.242706E+02  0.160E-02    3.21       0.0  T
   2    -24.2706371 -0.384174E-06  0.944E-03    3.21       3.1  T
   3    -24.2706371 -0.728597E-07  0.521E-03    3.21       5.5  T
   4    -24.2706372 -0.690668E-07  0.116E-03    3.21      24.8  T
   5    -24.2706372 -0.237220E-08  0.254E-04    3.21     113.7  T
   6    -24.2706372 -0.563531E-09  0.970E-05    3.21     297.7  T
     SCC iter.                  ...        0 min,  0.181 sec
     gradient                   ...        0 min,  0.091 sec
 * total energy  :   -23.9737633 Eh     change       -0.5231434E-05 Eh
   gradient norm :     0.0006610 Eh/α   predicted    -0.4782474E-05 (  -8.58%)
   displ. norm   :     0.0025686 α      lambda       -0.4697292E-06
   maximum displ.:     0.0013764 α      in ANC's #8, #7, #10, ...

........................................................................
.............................. CYCLE    7 ..............................
........................................................................
   1    -24.2706743 -0.242707E+02  0.342E-03    3.21       0.0  T
   2    -24.2706743 -0.320404E-07  0.209E-03    3.21      13.8  T
   3    -24.2706743 -0.248429E-08  0.112E-03    3.21      25.8  T
   4    -24.2706743 -0.153230E-08  0.381E-04    3.21      75.7  T
   5    -24.2706743 -0.792738E-09  0.719E-05    3.21     401.7  T
     SCC iter.                  ...        0 min,  0.165 sec
     gradient                   ...        0 min,  0.087 sec
 * total energy  :   -23.9737637 Eh     change       -0.3673029E-06 Eh
   gradient norm :     0.0002032 Eh/α   predicted    -0.2363012E-06 ( -35.67%)
   displ. norm   :     0.0006868 α      lambda       -0.4752325E-07
   maximum displ.:     0.0004458 α      in ANC's #13, #9, #12, ...

   *** GEOMETRY OPTIMIZATION CONVERGED AFTER 7 ITERATIONS ***

------------------------------------------------------------------------
 total energy gain   :        -0.0134403 Eh       -8.4339 kcal/mol
 total RMSD          :         0.0595991 a0        0.0315 Å
 total power (kW/mol):        -5.0410701 (step)  -13.1645 (real)
------------------------------------------------------------------------

 ANCopt (total)                0 d,  0 h,  0 min,  2.681 sec
 optimizer setup                ...        0 min,  0.000 sec (  0.004%)
 model hessian                  ...        0 min,  0.005 sec (  0.181%)
 ANC generation                 ...        0 min,  0.000 sec (  0.018%)
 coordinate transformation      ...        0 min,  0.000 sec (  0.009%)
 single point calculation       ...        0 min,  2.613 sec ( 97.462%)
 optimization log               ...        0 min,  0.001 sec (  0.025%)
 hessian update                 ...        0 min,  0.059 sec (  2.214%)
 rational function              ...        0 min,  0.001 sec (  0.042%)

================
 final structure:
================
12
 xtb: 6.4.1 (bd6e46d)
C         1.02166961453201    0.93745326120938   -0.00709148127573
C        -0.28620126764314    1.35971521474427   -0.00850892062822
C        -1.29940815253497    0.41907899887621   -0.00131936813770
C        -1.02655631612439   -0.93626015528238    0.00716737211116
C         0.28147795309755   -1.35778288402296    0.00856011688037
C         1.38221098402815   -0.44572816863839    0.00144688455248
O         2.59321486494076   -0.83617357982004    0.00266916669262
F        -2.62161659925864    0.84539676741852   -0.00280275569107
H         1.82412492340606    1.66551978184721   -0.01253444238653
H        -0.53338772516353    2.41324269514449   -0.01500265224015
H        -1.84262894124200   -1.64698831118304    0.01253041167930
H         0.50700066196214   -2.41747362029327    0.01508566844346

 Bond Distances (Angstroems)
 ---------------------------
C1-C2=1.3743         C1-C6=1.4294         C1-H9=1.0835         C2-C1=1.3743         C2-C3=1.3825         C2-H10=1.0822        
C3-C2=1.3825         C3-C4=1.3826         C3-F8=1.3892         C4-C3=1.3826         C4-C5=1.3743         C4-H11=1.0822        
C5-C4=1.3743         C5-C6=1.4295         C5-H12=1.0834        C6-C1=1.4294         C6-C5=1.4295         C6-O7=1.2724         
O7-C6=1.2724         F8-C3=1.3892         H9-C1=1.0835         H10-C2=1.0822        H11-C4=1.0822        H12-C5=1.0834        
 C  H  Rav=1.0828 sigma=0.0007  Rmin=1.0822  Rmax=1.0835     4
 C  C  Rav=1.3954 sigma=0.0243  Rmin=1.3743  Rmax=1.4295     6
 O  C  Rav=1.2724 sigma=0.0000  Rmin=1.2724  Rmax=1.2724     1
 F  C  Rav=1.3892 sigma=0.0000  Rmin=1.3892  Rmax=1.3892     1

 selected bond angles (degree)
 --------------------
C6-C1-C2=122.50                H9-C1-C2=119.89                H9-C1-C6=117.61                C3-C2-C1=119.23                
H10-C2-C1=121.10               H10-C2-C3=119.67               C4-C3-C2=121.49                F8-C3-C2=119.26                
F8-C3-C4=119.25                C5-C4-C3=119.24                H11-C4-C3=119.67               H11-C4-C5=121.08               
C6-C5-C4=122.49                H12-C5-C4=119.88               H12-C5-C6=117.63               C5-C6-C1=115.04                
O7-C6-C1=122.48                O7-C6-C5=122.48                

 selected dihedral angles (degree)
 ---------------------------------
C3-C2-C1-C6=  0.00            C3-C2-C1-H9=180.01            H10-C2-C1-C6=180.00           H10-C2-C1-H9=  0.00           
C4-C3-C2-C1=  0.00            C4-C3-C2-H10=180.00           F8-C3-C2-C1=180.00            F8-C3-C2-H10=  0.00           
C5-C4-C3-C2=  0.00            C5-C4-C3-F8=180.00            H11-C4-C3-C2=180.01           H11-C4-C3-F8=  0.00           
C6-C5-C4-C3=  0.00            C6-C5-C4-H11=179.99           H12-C5-C4-C3=180.01           H12-C5-C4-H11=  0.00          
C5-C6-C1-C2=  0.00            C5-C6-C1-H9=179.99            O7-C6-C1-C2=180.00            O7-C6-C1-H9=  0.00            
C1-C6-C5-C4=  0.00            C1-C6-C5-H12=180.00           O7-C6-C5-C4=180.00            O7-C6-C5-H12=  0.00           
           -------------------------------------------------
          |                Final Singlepoint                |
           -------------------------------------------------

          ...................................................
          :                      SETUP                      :
          :.................................................:
          :  # basis functions                  36          :
          :  # atomic orbitals                  36          :
          :  # shells                           20          :
          :  # electrons                        42          :
          :  max. iterations                   250          :
          :  Hamiltonian                  GFN2-xTB          :
          :  restarted?                      false          :
          :  GBSA solvation                   true          :
          :  PC potential                    false          :
          :  electronic temp.          300.0000000     K    :
          :  accuracy                    1.0000000          :
          :  -> integral cutoff          0.2500000E+02      :
          :  -> integral neglect         0.1000000E-07      :
          :  -> SCF convergence          0.1000000E-05 Eh   :
          :  -> wf. convergence          0.1000000E-03 e    :
          :  Broyden damping             0.4000000          :
          ...................................................

 iter      E             dE          RMSdq      gap      omega  full diag
   1    -24.2706743 -0.242707E+02  0.362E-05    3.21       0.0  T
   2    -24.2706743 -0.410338E-11  0.195E-05    3.21    1484.1  T
   3    -24.2706743 -0.195399E-11  0.111E-05    3.21    2612.1  T

   *** convergence criteria satisfied after 3 iterations ***

         #    Occupation            Energy/Eh            Energy/eV
      -------------------------------------------------------------
         1        2.0000           -0.7873289             -21.4243
       ...           ...                  ...                  ...
        15        2.0000           -0.4499903             -12.2449
        16        2.0000           -0.4146926             -11.2844
        17        2.0000           -0.4076548             -11.0929
        18        2.0000           -0.4046260             -11.0104
        19        2.0000           -0.3768115             -10.2536
        20        2.0000           -0.3199090              -8.7052
        21        2.0000           -0.3106804              -8.4540 (HOMO)
        22                         -0.1927875              -5.2460 (LUMO)
        23                         -0.1650041              -4.4900
        24                         -0.0523502              -1.4245
        25                          0.0408882               1.1126
        26                          0.1443936               3.9292
       ...                                ...                  ...
        36                          0.7103770              19.3303
      -------------------------------------------------------------
                  HL-Gap            0.1178929 Eh            3.2080 eV
             Fermi-level           -0.2517339 Eh           -6.8500 eV

 SCC (total)                   0 d,  0 h,  0 min,  0.258 sec
 SCC setup                      ...        0 min,  0.018 sec (  6.993%)
 Dispersion                     ...        0 min,  0.014 sec (  5.603%)
 classical contributions        ...        0 min,  0.014 sec (  5.476%)
 integral evaluation            ...        0 min,  0.029 sec ( 11.118%)
 iterations                     ...        0 min,  0.094 sec ( 36.433%)
 molecular gradient             ...        0 min,  0.088 sec ( 34.226%)
 printout                       ...        0 min,  0.000 sec (  0.055%)

         :::::::::::::::::::::::::::::::::::::::::::::::::::::
         ::                     SUMMARY                     ::
         :::::::::::::::::::::::::::::::::::::::::::::::::::::
         :: total energy             -23.973763657320 Eh    ::
         :: total w/o Gsasa/hb       -23.967785416425 Eh    ::
         :: gradient norm              0.000203212483 Eh/a0 ::
         :: HOMO-LUMO gap              3.208029397323 eV    ::
         ::.................................................::
         :: SCC energy               -24.270674343151 Eh    ::
         :: -> isotropic ES            0.171747325266 Eh    ::
         :: -> anisotropic ES          0.010294084504 Eh    ::
         :: -> anisotropic XC          0.001911691849 Eh    ::
         :: -> dispersion             -0.009791442246 Eh    ::
         :: -> Gsolv                  -0.087679361239 Eh    ::
         ::    -> Gelec               -0.081701120344 Eh    ::
         ::    -> Gsasa               -0.008014743240 Eh    ::
         ::    -> Ghb                 -0.000010773007 Eh    ::
         ::    -> Gshift               0.002047275352 Eh    ::
         :: repulsion energy           0.296901251106 Eh    ::
         :: add. restraining           0.000000000000 Eh    ::
         :: total charge              -1.000000000000 e     ::
         :::::::::::::::::::::::::::::::::::::::::::::::::::::

           -------------------------------------------------
          |                Property Printout                |
           -------------------------------------------------

    * Orbital Energies and Occupations

         #    Occupation            Energy/Eh            Energy/eV
      -------------------------------------------------------------
         1        2.0000           -0.7873289             -21.4243
       ...           ...                  ...                  ...
         9        2.0000           -0.4970288             -13.5248
        10        2.0000           -0.4921470             -13.3920
        11        2.0000           -0.4830100             -13.1434
        12        2.0000           -0.4570128             -12.4360
        13        2.0000           -0.4544386             -12.3659
        14        2.0000           -0.4515197             -12.2865
        15        2.0000           -0.4499903             -12.2449
        16        2.0000           -0.4146926             -11.2844
        17        2.0000           -0.4076548             -11.0929
        18        2.0000           -0.4046260             -11.0104
        19        2.0000           -0.3768115             -10.2536
        20        2.0000           -0.3199090              -8.7052
        21        2.0000           -0.3106804              -8.4540 (HOMO)
        22                         -0.1927875              -5.2460 (LUMO)
        23                         -0.1650041              -4.4900
        24                         -0.0523502              -1.4245
        25                          0.0408882               1.1126
        26                          0.1443936               3.9292
        27                          0.1796833               4.8894
        28                          0.1851809               5.0390
        29                          0.2287252               6.2239
        30                          0.2604996               7.0886
        31                          0.4150920              11.2952
        32                          0.4544133              12.3652
       ...                                ...                  ...
        36                          0.7103770              19.3303
      -------------------------------------------------------------
                  HL-Gap            0.1178929 Eh            3.2080 eV
             Fermi-level           -0.2517339 Eh           -6.8500 eV

     #   Z          covCN         q      C6AA      α(0)
     1   6 C        2.923    -0.096    30.418     9.045
     2   6 C        2.908    -0.064    29.592     8.920
     3   6 C        2.787     0.110    25.563     8.282
     4   6 C        2.908    -0.064    29.592     8.920
     5   6 C        2.923    -0.096    30.419     9.045
     6   6 C        2.829     0.171    24.325     8.082
     7   8 O        0.857    -0.665    27.779     7.066
     8   9 F        0.784    -0.309    12.426     4.164
     9   1 H        0.925    -0.007     3.181     2.789
    10   1 H        0.925     0.014     2.824     2.628
    11   1 H        0.925     0.014     2.824     2.628
    12   1 H        0.925    -0.007     3.181     2.789

 Mol. C6AA /au·bohr⁶  :       2249.955858
 Mol. C8AA /au·bohr⁸  :      54326.213859
 Mol. α(0) /au        :         74.356495


Wiberg/Mayer (AO) data.
largest (>0.10) Wiberg bond orders for each atom

 ---------------------------------------------------------------------------
     #   Z sym  total        # sym  WBO       # sym  WBO       # sym  WBO
 ---------------------------------------------------------------------------
     1   6 C    3.978 --     2 C    1.498     6 C    1.225     9 H    0.972
                             7 O    0.104
     2   6 C    3.988 --     1 C    1.498     3 C    1.373    10 H    0.968
     3   6 C    3.834 --     2 C    1.373     4 C    1.373     8 F    0.883
     4   6 C    3.988 --     5 C    1.498     3 C    1.373    11 H    0.968
     5   6 C    3.978 --     4 C    1.498     6 C    1.225    12 H    0.972
                             7 O    0.104
     6   6 C    3.969 --     7 O    1.423     1 C    1.225     5 C    1.225
     7   8 O    1.730 --     6 C    1.423     1 C    0.104     5 C    0.104
     8   9 F    0.980 --     3 C    0.883
     9   1 H    1.000 --     1 C    0.972
    10   1 H    1.000 --     2 C    0.968
    11   1 H    1.000 --     4 C    0.968
    12   1 H    1.000 --     5 C    0.972
 ---------------------------------------------------------------------------

Topologies differ in total number of bonds
Writing topology from bond orders to xtbtopo.mol

molecular dipole:
                 x           y           z       tot (Debye)
 q only:       -1.725       0.556      -0.002
   full:       -1.912       0.616      -0.002       5.105
molecular quadrupole (traceless):
                xx          xy          yy          xz          yz          zz
 q only:      -20.487      10.087       7.544      -0.030       0.024      12.943
  q+dip:      -22.685      12.218      11.268      -0.043      -0.011      11.418
   full:      -23.170      11.861       9.792      -0.039       0.011      13.378

           -------------------------------------------------
          |                Geometry Summary                 |
           -------------------------------------------------

      molecular mass/u    :      111.0939865
   center of mass at/Å    :       -0.0673554       0.0217364      -0.0000667
  moments of inertia/u·Å² :        0.8832786E+02   0.3389462E+03   0.4272741E+03
rotational constants/cm⁻¹ :        0.1908530E+00   0.4973541E-01   0.3945391E-01

 * 10 selected distances

     #   Z          #   Z                                           value/Å
     1   6 C        2   6 C                                       1.3743484
     2   6 C        3   6 C                                       1.3825471
     3   6 C        4   6 C                                       1.3825572
     4   6 C        5   6 C                                       1.3742769
     1   6 C        6   6 C                                       1.4294243
     5   6 C        6   6 C                                       1.4295131 (max)
     1   6 C        9   1 H                                       1.0835336
     2   6 C       10   1 H                                       1.0821569 (min)
     4   6 C       11   1 H                                       1.0821912
     5   6 C       12   1 H                                       1.0834424

 * 2 distinct bonds (by element types)

   Z      Z             #   av. dist./Å        max./Å        min./Å
   1 H    6 C           4     1.0828310     1.0835336     1.0821569
   6 C    6 C           6     1.3954445     1.4295131     1.3742769


optimized geometry written to: xtbopt.xyz


           -------------------------------------------------
          | TOTAL ENERGY              -23.973763657320 Eh   |
          | GRADIENT NORM               0.000203212483 Eh/α |
          | HOMO-LUMO GAP               3.208029397323 eV   |
           -------------------------------------------------

------------------------------------------------------------------------
 * finished run on 2022/03/02 at 03:03:26.870     
------------------------------------------------------------------------
 total:
 * wall-time:     0 d,  0 h,  0 min,  3.628 sec
 *  cpu-time:     0 d,  0 h,  5 min, 31.195 sec
 * ratio c/w:    91.279 speedup
 SCF:
 * wall-time:     0 d,  0 h,  0 min,  0.535 sec
 *  cpu-time:     0 d,  0 h,  0 min, 49.216 sec
 * ratio c/w:    92.017 speedup
 ANC optimizer:
 * wall-time:     0 d,  0 h,  0 min,  2.940 sec
 *  cpu-time:     0 d,  0 h,  4 min, 31.055 sec
 * ratio c/w:    92.202 speedup

