      -----------------------------------------------------------      
     |                   =====================                   |     
     |                           x T B                           |     
     |                   =====================                   |     
     |                         S. Grimme                         |     
     |          Mulliken Center for Theoretical Chemistry        |     
     |                    University of Bonn                     |     
      -----------------------------------------------------------      

   * xtb version 6.4.1 (bd6e46d) compiled by 'conda@4901f00b25ba' on 2021-06-10

   xtb is free software: you can redistribute it and/or modify it under
   the terms of the GNU Lesser General Public License as published by
   the Free Software Foundation, either version 3 of the License, or
   (at your option) any later version.
   
   xtb is distributed in the hope that it will be useful,
   but WITHOUT ANY WARRANTY; without even the implied warranty of
   MERCHANTABILITY or FITNESS FOR A PARTICULAR PURPOSE.  See the
   GNU Lesser General Public License for more details.
   
   Cite this work as:
   * C. Bannwarth, E. Caldeweyher, S. Ehlert, A. Hansen, P. Pracht,
     J. Seibert, S. Spicher, S. Grimme, WIREs Comput. Mol. Sci., 2020, 11,
     e01493. DOI: 10.1002/wcms.1493
   
   for GFN2-xTB:
   * C. Bannwarth, S. Ehlert and S. Grimme., J. Chem. Theory Comput., 2019,
     15, 1652-1671. DOI: 10.1021/acs.jctc.8b01176
   for GFN1-xTB:
   * S. Grimme, C. Bannwarth, P. Shushkov, J. Chem. Theory Comput., 2017,
     13, 1989-2009. DOI: 10.1021/acs.jctc.7b00118
   for GFN0-xTB:
   * P. Pracht, E. Caldeweyher, S. Ehlert, S. Grimme, ChemRxiv, 2019, preprint.
     DOI: 10.26434/chemrxiv.8326202.v1
   for GFN-FF:
   * S. Spicher and S. Grimme, Angew. Chem. Int. Ed., 2020, 59, 15665-15673.
     DOI: 10.1002/anie.202004239
   
   for DFT-D4:
   * E. Caldeweyher, C. Bannwarth and S. Grimme, J. Chem. Phys., 2017,
     147, 034112. DOI: 10.1063/1.4993215
   * E. Caldeweyher, S. Ehlert, A. Hansen, H. Neugebauer, S. Spicher,
     C. Bannwarth and S. Grimme, J. Chem. Phys., 2019, 150, 154122.
     DOI: 10.1063/1.5090222
   * E. Caldeweyher, J.-M. Mewes, S. Ehlert and S. Grimme, Phys. Chem. Chem. Phys.
     2020, 22, 8499-8512. DOI: 10.1039/D0CP00502A
   
   for sTDA-xTB:
   * S. Grimme and C. Bannwarth, J. Chem. Phys., 2016, 145, 054103.
     DOI: 10.1063/1.4959605
   
   in the mass-spec context:
   * V. Asgeirsson, C. Bauer and S. Grimme, Chem. Sci., 2017, 8, 4879.
     DOI: 10.1039/c7sc00601b
   * J. Koopman and S. Grimme, ACS Omega 2019, 4, 12, 15120-15133.
     DOI: 10.1021/acsomega.9b02011
   
   for metadynamics refer to:
   * S. Grimme, J. Chem. Theory Comput., 2019, 155, 2847-2862
     DOI: 10.1021/acs.jctc.9b00143
   
   for SPH calculations refer to:
   * S. Spicher and S. Grimme, J. Chem. Theory Comput., 2021, 17, 1701-1714
     DOI: 10.1021/acs.jctc.0c01306
   
   with help from (in alphabetical order)
   P. Atkinson, C. Bannwarth, F. Bohle, G. Brandenburg, E. Caldeweyher
   M. Checinski, S. Dohm, S. Ehlert, S. Ehrlich, I. Gerasimov, J. Koopman
   C. Lavigne, S. Lehtola, F. März, M. Müller, F. Musil, H. Neugebauer
   J. Pisarek, C. Plett, P. Pracht, J. Seibert, P. Shushkov, S. Spicher
   M. Stahn, M. Steiner, T. Strunk, J. Stückrath, T. Rose, and J. Unsleber
   
 * started run on 2022/03/02 at 03:03:11.639     

           -------------------------------------------------
          |                Calculation Setup                |
           -------------------------------------------------

          program call               : /jet/home/maihfly/.conda/envs/Cyclodextrins-Env/bin/xtb p-fluorophenol_opt_xtb.xyz --chrg 0 --uhf 0 --opt --gbsa Acetonitrile
          hostname                   : e001
          coordinate file            : p-fluorophenol_opt_xtb.xyz
          omp threads                :                    96
          number of atoms            :                    13
          number of electrons        :                    42
          charge                     :                     0
          spin                       :                   0.0
          first test random number   :      0.41634434292046

   ID    Z sym.   atoms
    1    6 C      1-6
    2    8 O      7
    3    9 F      8
    4    1 H      9-13

           -------------------------------------------------
          |                 G F N 2 - x T B                 |
           -------------------------------------------------

        Reference                      10.1021/acs.jctc.8b01176
      * Hamiltonian:
        H0-scaling (s, p, d)           1.850000    2.230000    2.230000
        zeta-weighting                 0.500000
      * Dispersion:
        s8                             2.700000
        a1                             0.520000
        a2                             5.000000
        s9                             5.000000
      * Repulsion:
        kExp                           1.500000    1.000000
        rExp                           1.000000
      * Coulomb:
        alpha                          2.000000
        third order                    shell-resolved
        anisotropic                    true
        a3                             3.000000
        a5                             4.000000
        cn-shift                       1.200000
        cn-exp                         4.000000
        max-rad                        5.000000

      * Solvation model:               GBSA
        Solvent                        Acetonitrile
        Parameter file                 internal GFN2-xTB/GBSA
        Dielectric constant                3.7500E+01
        Reference state                gsolv [1 M gas/solution]
        Free energy shift                  2.0473E-03 Eh       1.2847E+00 kcal/mol
        Temperature                        2.9815E+02 K
        Density                            7.8600E-01 kg/L
        Solvent mass                       4.1050E+01 g/mol
        Interaction kernel             Still
        Born radius scaling (c1)           1.5800E+00
        Born radii integrator          GBOBC
        Born offset                        1.3788E-02 a0       2.6056E-02 AA
        H-bond correction              true
        Ion screening                  false
        Surface tension                    1.0000E-05 Eh       1.5569E+01 dyn/cm
        Grid points                               230 per atom

          ...................................................
          :                      SETUP                      :
          :.................................................:
          :  # basis functions                  37          :
          :  # atomic orbitals                  37          :
          :  # shells                           21          :
          :  # electrons                        42          :
          :  max. iterations                   250          :
          :  Hamiltonian                  GFN2-xTB          :
          :  restarted?                      false          :
          :  GBSA solvation                   true          :
          :  PC potential                    false          :
          :  electronic temp.          300.0000000     K    :
          :  accuracy                    1.0000000          :
          :  -> integral cutoff          0.2500000E+02      :
          :  -> integral neglect         0.1000000E-07      :
          :  -> SCF convergence          0.1000000E-05 Eh   :
          :  -> wf. convergence          0.1000000E-03 e    :
          :  Broyden damping             0.4000000          :
          ...................................................

 iter      E             dE          RMSdq      gap      omega  full diag
   1    -24.4720078 -0.244720E+02  0.482E+00    4.40       0.0  T
   2    -24.4899274 -0.179195E-01  0.276E+00    4.63       1.0  T
   3    -24.4870694  0.285792E-02  0.922E-01    4.33       1.0  T
   4    -24.4924773 -0.540784E-02  0.236E-01    4.57       1.0  T
   5    -24.4926345 -0.157171E-03  0.704E-02    4.56       1.0  T
   6    -24.4926421 -0.767873E-05  0.386E-02    4.56       1.0  T
   7    -24.4926473 -0.519019E-05  0.119E-02    4.56       2.3  T
   8    -24.4926474 -0.117423E-06  0.412E-03    4.56       6.7  T
   9    -24.4926475 -0.101058E-06  0.211E-03    4.56      13.1  T
  10    -24.4926476 -0.670824E-08  0.761E-04    4.56      36.4  T
  11    -24.4926476 -0.292102E-08  0.204E-04    4.56     136.2  T

   *** convergence criteria satisfied after 11 iterations ***

         #    Occupation            Energy/Eh            Energy/eV
      -------------------------------------------------------------
         1        2.0000           -0.8198596             -22.3095
       ...           ...                  ...                  ...
        15        2.0000           -0.4896018             -13.3227
        16        2.0000           -0.4805839             -13.0774
        17        2.0000           -0.4715058             -12.8303
        18        2.0000           -0.4494546             -12.2303
        19        2.0000           -0.4229268             -11.5084
        20        2.0000           -0.4166771             -11.3384
        21        2.0000           -0.4095513             -11.1445 (HOMO)
        22                         -0.2420211              -6.5857 (LUMO)
        23                         -0.2345012              -6.3811
        24                         -0.1076266              -2.9287
        25                          0.0008782               0.0239
        26                          0.0245760               0.6687
       ...                                ...                  ...
        37                          0.6561741              17.8554
      -------------------------------------------------------------
                  HL-Gap            0.1675302 Eh            4.5587 eV
             Fermi-level           -0.3257862 Eh           -8.8651 eV

 SCC (total)                   0 d,  0 h,  0 min,  0.523 sec
 SCC setup                      ...        0 min,  0.017 sec (  3.317%)
 Dispersion                     ...        0 min,  0.019 sec (  3.640%)
 classical contributions        ...        0 min,  0.009 sec (  1.774%)
 integral evaluation            ...        0 min,  0.029 sec (  5.525%)
 iterations                     ...        0 min,  0.351 sec ( 67.181%)
 molecular gradient             ...        0 min,  0.097 sec ( 18.469%)
 printout                       ...        0 min,  0.000 sec (  0.028%)

         :::::::::::::::::::::::::::::::::::::::::::::::::::::
         ::                     SUMMARY                     ::
         :::::::::::::::::::::::::::::::::::::::::::::::::::::
         :: total energy             -24.180415331359 Eh    ::
         :: total w/o Gsasa/hb       -24.170776934949 Eh    ::
         :: gradient norm              0.068100330737 Eh/a0 ::
         :: HOMO-LUMO gap              4.558728294209 eV    ::
         ::.................................................::
         :: SCC energy               -24.492647554078 Eh    ::
         :: -> isotropic ES            0.042709003925 Eh    ::
         :: -> anisotropic ES          0.001427258013 Eh    ::
         :: -> anisotropic XC          0.003314384690 Eh    ::
         :: -> dispersion             -0.009216483871 Eh    ::
         :: -> Gsolv                  -0.014423609908 Eh    ::
         ::    -> Gelec               -0.004785213498 Eh    ::
         ::    -> Gsasa               -0.008114764865 Eh    ::
         ::    -> Ghb                 -0.003570906896 Eh    ::
         ::    -> Gshift               0.002047275352 Eh    ::
         :: repulsion energy           0.312221722702 Eh    ::
         :: add. restraining           0.000000000000 Eh    ::
         :: total charge              -0.000000000000 e     ::
         :::::::::::::::::::::::::::::::::::::::::::::::::::::

      ----------------------------------------------------------- 
     |                   =====================                   |
     |                        A N C O P T                        |
     |                   =====================                   |
     |               Approximate Normal Coordinate               |
     |                Rational Function Optimizer                |
      ----------------------------------------------------------- 

          ...................................................
          :                      SETUP                      :
          :.................................................:
          :   optimization level            normal          :
          :   max. optcycles                   200          :
          :   ANC micro-cycles                  20          :
          :   degrees of freedom                33          :
          :.................................................:
          :   RF solver                   davidson          :
          :   write xtbopt.log                true          :
          :   linear?                        false          :
          :   energy convergence         0.5000000E-05 Eh   :
          :   grad. convergence          0.1000000E-02 Eh/α :
          :   maximium RF displ.         1.0000000          :
          :   Hlow (freq-cutoff)         0.1000000E-01      :
          :   Hmax (freq-cutoff)         5.0000000          :
          :   S6 in model hess.         20.0000000          :
          ...................................................

generating ANC from model Hessian ...
Using Lindh-Hessian (1995)
 Shifting diagonal of input Hessian by    1.3288084233989070E-003
 Lowest  eigenvalues of input Hessian
    0.000000    0.000000    0.000000    0.000000    0.000000    0.000000
    0.010000    0.016052    0.018979    0.022942    0.027511    0.053432
    0.078145    0.092543    0.096436    0.100797    0.103929    0.111846
 Highest eigenvalues
    1.467703    1.611712    1.840671    1.930008    2.039640    2.171543


........................................................................
.............................. CYCLE    1 ..............................
........................................................................
   1    -24.4926476 -0.244926E+02  0.123E-04    4.56       0.0  T
   2    -24.4926476 -0.564206E-10  0.690E-05    4.56     401.7  T
   3    -24.4926476 -0.123066E-10  0.445E-05    4.56     622.9  T
     SCC iter.                  ...        0 min,  0.101 sec
     gradient                   ...        0 min,  0.087 sec
 * total energy  :   -24.1804153 Eh     change       -0.1748006E-09 Eh
   gradient norm :     0.0681003 Eh/α   predicted     0.0000000E+00 (-100.00%)
   displ. norm   :     0.2178233 α      lambda       -0.8716856E-02
   maximum displ.:     0.0998398 α      in ANC's #8, #15, #9, ...

........................................................................
.............................. CYCLE    2 ..............................
........................................................................
   1    -24.4982883 -0.244983E+02  0.342E-01    4.48       0.0  T
   2    -24.4983058 -0.175090E-04  0.205E-01    4.48       1.0  T
   3    -24.4982995  0.624472E-05  0.296E-02    4.49       1.0  T
   4    -24.4983079 -0.839437E-05  0.793E-03    4.48       3.5  T
   5    -24.4983083 -0.395218E-06  0.311E-03    4.48       8.9  T
   6    -24.4983083 -0.111363E-07  0.201E-03    4.48      13.8  T
   7    -24.4983083 -0.129558E-07  0.462E-04    4.48      60.0  T
   8    -24.4983083 -0.361545E-09  0.247E-04    4.48     112.2  T
     SCC iter.                  ...        0 min,  0.258 sec
     gradient                   ...        0 min,  0.089 sec
 * total energy  :   -24.1862543 Eh     change       -0.5838969E-02 Eh
   gradient norm :     0.0268778 Eh/α   predicted    -0.4565223E-02 ( -21.81%)
   displ. norm   :     0.1265683 α      lambda       -0.1747361E-02
   maximum displ.:     0.0706139 α      in ANC's #6, #8, #15, ...

........................................................................
.............................. CYCLE    3 ..............................
........................................................................
   1    -24.5026845 -0.245027E+02  0.171E-01    4.44       0.0  T
   2    -24.5026870 -0.253728E-05  0.102E-01    4.44       1.0  T
   3    -24.5026846  0.238738E-05  0.157E-02    4.44       1.8  T
   4    -24.5026878 -0.318770E-05  0.312E-03    4.44       8.9  T
   5    -24.5026878 -0.194910E-07  0.167E-03    4.44      16.6  T
   6    -24.5026878 -0.147327E-08  0.776E-04    4.44      35.7  T
   7    -24.5026878 -0.301271E-08  0.203E-04    4.44     136.7  T
     SCC iter.                  ...        0 min,  0.215 sec
     gradient                   ...        0 min,  0.093 sec
 * total energy  :   -24.1870720 Eh     change       -0.8176950E-03 Eh
   gradient norm :     0.0079808 Eh/α   predicted    -0.8876760E-03 (   8.56%)
   displ. norm   :     0.0399739 α      lambda       -0.8685072E-04
   maximum displ.:     0.0272523 α      in ANC's #2, #3, #4, ...

........................................................................
.............................. CYCLE    4 ..............................
........................................................................
   1    -24.5023080 -0.245023E+02  0.261E-02    4.44       0.0  T
   2    -24.5023083 -0.342464E-06  0.156E-02    4.44       1.8  T
   3    -24.5023081  0.232273E-06  0.746E-03    4.44       3.7  T
   4    -24.5023085 -0.376883E-06  0.105E-03    4.44      26.4  T
   5    -24.5023085 -0.245055E-08  0.573E-04    4.44      48.4  T
   6    -24.5023085 -0.852602E-09  0.278E-04    4.44      99.6  T
     SCC iter.                  ...        0 min,  0.182 sec
     gradient                   ...        0 min,  0.096 sec
 * total energy  :   -24.1871398 Eh     change       -0.6784605E-04 Eh
   gradient norm :     0.0034260 Eh/α   predicted    -0.4349454E-04 ( -35.89%)
   displ. norm   :     0.1344100 α      lambda       -0.1515704E-03
   maximum displ.:     0.0968783 α      in ANC's #2, #3, #10, ...

........................................................................
.............................. CYCLE    5 ..............................
........................................................................
   1    -24.5014493 -0.245014E+02  0.745E-02    4.43       0.0  T
   2    -24.5014515 -0.222296E-05  0.448E-02    4.42       1.0  T
   3    -24.5014500  0.153617E-05  0.176E-02    4.42       1.6  T
   4    -24.5014525 -0.246818E-05  0.292E-03    4.42       9.5  T
   5    -24.5014525 -0.623224E-08  0.155E-03    4.42      17.9  T
   6    -24.5014525 -0.868754E-08  0.596E-04    4.42      46.5  T
   7    -24.5014525 -0.676920E-09  0.165E-04    4.42     167.7  T
     SCC iter.                  ...        0 min,  0.221 sec
     gradient                   ...        0 min,  0.091 sec
 * total energy  :   -24.1872319 Eh     change       -0.9205624E-04 Eh
   gradient norm :     0.0102851 Eh/α   predicted    -0.7715591E-04 ( -16.19%)
   displ. norm   :     0.0812420 α      lambda       -0.8762401E-04
   maximum displ.:     0.0564078 α      in ANC's #2, #3, #10, ...

........................................................................
.............................. CYCLE    6 ..............................
........................................................................
   1    -24.5011736 -0.245012E+02  0.444E-02    4.40       0.0  T
   2    -24.5011743 -0.745280E-06  0.269E-02    4.40       1.0  T
   3    -24.5011739  0.456234E-06  0.993E-03    4.40       2.8  T
   4    -24.5011747 -0.767746E-06  0.192E-03    4.40      14.4  T
   5    -24.5011747 -0.189882E-08  0.905E-04    4.40      30.7  T
   6    -24.5011747 -0.450290E-08  0.332E-04    4.40      83.5  T
     SCC iter.                  ...        0 min,  0.189 sec
     gradient                   ...        0 min,  0.090 sec
 * total energy  :   -24.1873135 Eh     change       -0.8161394E-04 Eh
   gradient norm :     0.0144664 Eh/α   predicted    -0.4409942E-04 ( -45.97%)
   displ. norm   :     0.5781964 α      lambda       -0.8684817E-03
   maximum displ.:     0.3906529 α      in ANC's #2, #3, #12, ...

........................................................................
.............................. CYCLE    7 ..............................
........................................................................
   1    -24.4908020 -0.244908E+02  0.365E-01    4.21       0.0  T
   2    -24.4909071 -0.105156E-03  0.209E-01    4.23       1.0  T
   3    -24.4908840  0.231516E-04  0.998E-02    4.24       1.0  T
   4    -24.4909349 -0.509269E-04  0.258E-02    4.23       1.1  T
   5    -24.4909364 -0.146951E-05  0.876E-03    4.23       3.2  T
   6    -24.4909367 -0.299516E-06  0.447E-03    4.23       6.2  T
   7    -24.4909367 -0.396779E-07  0.162E-03    4.23      17.1  T
   8    -24.4909367 -0.331139E-08  0.549E-04    4.23      50.5  T
   9    -24.4909367 -0.214679E-08  0.281E-04    4.23      98.7  T
     SCC iter.                  ...        0 min,  0.279 sec
     gradient                   ...        0 min,  0.083 sec
 * total energy  :   -24.1844274 Eh     change        0.2886067E-02 Eh
   gradient norm :     0.0755348 Eh/α   predicted    -0.5793859E-03 (-120.08%)
   displ. norm   :     0.3721133 α      lambda       -0.8587366E-02
   maximum displ.:     0.2662032 α      in ANC's #2, #3, #12, ...

........................................................................
.............................. CYCLE    8 ..............................
........................................................................
   1    -24.5022178 -0.245022E+02  0.278E-01    4.35       0.0  T
   2    -24.5022678 -0.500248E-04  0.161E-01    4.34       1.0  T
   3    -24.5022580  0.981909E-05  0.667E-02    4.34       1.0  T
   4    -24.5022843 -0.263124E-04  0.198E-02    4.34       1.4  T
   5    -24.5022851 -0.808815E-06  0.812E-03    4.34       3.4  T
   6    -24.5022853 -0.180806E-06  0.451E-03    4.34       6.1  T
   7    -24.5022853 -0.442902E-07  0.141E-03    4.34      19.7  T
   8    -24.5022853 -0.393358E-08  0.492E-04    4.34      56.3  T
   9    -24.5022853 -0.149145E-08  0.271E-04    4.34     102.5  T
     SCC iter.                  ...        0 min,  0.283 sec
     gradient                   ...        0 min,  0.093 sec
 * total energy  :   -24.1877990 Eh     change       -0.3371565E-02 Eh
   gradient norm :     0.0150561 Eh/α   predicted    -0.4888228E-02 (  44.98%)
   displ. norm   :     0.0441233 α      lambda       -0.3008990E-03
   maximum displ.:     0.0240071 α      in ANC's #12, #2, #3, ...

........................................................................
.............................. CYCLE    9 ..............................
........................................................................
   1    -24.5026245 -0.245026E+02  0.412E-02    4.33       0.0  T
   2    -24.5026260 -0.142710E-05  0.245E-02    4.33       1.1  T
   3    -24.5026256  0.366439E-06  0.135E-02    4.33       2.0  T
   4    -24.5026265 -0.923444E-06  0.229E-03    4.33      12.1  T
   5    -24.5026265 -0.961321E-08  0.964E-04    4.33      28.8  T
   6    -24.5026265 -0.426169E-08  0.457E-04    4.33      60.6  T
     SCC iter.                  ...        0 min,  0.189 sec
     gradient                   ...        0 min,  0.084 sec
 * total energy  :   -24.1880791 Eh     change       -0.2800488E-03 Eh
   gradient norm :     0.0138463 Eh/α   predicted    -0.1507439E-03 ( -46.17%)
   displ. norm   :     0.4612482 α      lambda       -0.2677830E-02
   maximum displ.:     0.2792253 α      in ANC's #2, #3, #12, ...

........................................................................
.............................. CYCLE   10 ..............................
........................................................................
   1    -24.4956649 -0.244957E+02  0.396E-01    4.18       0.0  T
   2    -24.4958955 -0.230619E-03  0.221E-01    4.23       1.0  T
   3    -24.4958850  0.105124E-04  0.126E-01    4.23       1.0  T
   4    -24.4959480 -0.630843E-04  0.346E-02    4.24       1.0  T
   5    -24.4959505 -0.245328E-05  0.928E-03    4.23       3.0  T
   6    -24.4959508 -0.289704E-06  0.488E-03    4.23       5.7  T
   7    -24.4959509 -0.766626E-07  0.175E-03    4.23      15.9  T
   8    -24.4959509 -0.228938E-08  0.487E-04    4.23      57.0  T
   9    -24.4959509 -0.194622E-08  0.210E-04    4.23     132.2  T
     SCC iter.                  ...        0 min,  0.285 sec
     gradient                   ...        0 min,  0.087 sec
 * total energy  :   -24.1878560 Eh     change        0.2230551E-03 Eh
   gradient norm :     0.0613434 Eh/α   predicted    -0.1623755E-02 (-827.96%)
   displ. norm   :     0.2434418 α      lambda       -0.4958561E-02
   maximum displ.:     0.1514167 α      in ANC's #2, #3, #12, ...

........................................................................
.............................. CYCLE   11 ..............................
........................................................................
   1    -24.5043874 -0.245044E+02  0.243E-01    4.30       0.0  T
   2    -24.5044472 -0.598206E-04  0.138E-01    4.28       1.0  T
   3    -24.5044406  0.656567E-05  0.651E-02    4.28       1.0  T
   4    -24.5044615 -0.209243E-04  0.204E-02    4.28       1.4  T
   5    -24.5044626 -0.100641E-05  0.680E-03    4.28       4.1  T
   6    -24.5044626 -0.988049E-07  0.380E-03    4.28       7.3  T
   7    -24.5044627 -0.413323E-07  0.147E-03    4.28      18.9  T
   8    -24.5044627 -0.359595E-08  0.398E-04    4.28      69.7  T
   9    -24.5044627 -0.951044E-09  0.219E-04    4.28     126.9  T
     SCC iter.                  ...        0 min,  0.281 sec
     gradient                   ...        0 min,  0.094 sec
 * total energy  :   -24.1894438 Eh     change       -0.1587833E-02 Eh
   gradient norm :     0.0083206 Eh/α   predicted    -0.2626208E-02 (  65.40%)
   displ. norm   :     0.1160072 α      lambda       -0.6643526E-03
   maximum displ.:     0.0671176 α      in ANC's #2, #3, #1, ...

........................................................................
.............................. CYCLE   12 ..............................
........................................................................
   1    -24.5044162 -0.245044E+02  0.848E-02    4.24       0.0  T
   2    -24.5044274 -0.111635E-04  0.491E-02    4.25       1.0  T
   3    -24.5044278 -0.412755E-06  0.298E-02    4.25       1.0  T
   4    -24.5044308 -0.302449E-05  0.663E-03    4.25       4.2  T
   5    -24.5044309 -0.841480E-07  0.210E-03    4.25      13.2  T
   6    -24.5044309 -0.258752E-07  0.916E-04    4.25      30.3  T
   7    -24.5044309 -0.211696E-08  0.311E-04    4.25      89.1  T
     SCC iter.                  ...        0 min,  0.223 sec
     gradient                   ...        0 min,  0.093 sec
 * total energy  :   -24.1900970 Eh     change       -0.6531613E-03 Eh
   gradient norm :     0.0120518 Eh/α   predicted    -0.3366453E-03 ( -48.46%)
   displ. norm   :     0.8125922 α      lambda       -0.4707872E-02
   maximum displ.:     0.4748160 α      in ANC's #2, #3, #26, ...

........................................................................
.............................. CYCLE   13 ..............................
........................................................................
   1    -24.4797819 -0.244798E+02  0.625E-01    3.99       0.0  T
   2    -24.4805927 -0.810865E-03  0.320E-01    4.09       1.0  T
   3    -24.4806253 -0.325874E-04  0.194E-01    4.08       1.0  T
   4    -24.4807515 -0.126224E-03  0.630E-02    4.09       1.0  T
   5    -24.4807592 -0.765253E-05  0.186E-02    4.09       1.5  T
   6    -24.4807600 -0.855319E-06  0.108E-02    4.08       2.6  T
   7    -24.4807604 -0.326662E-06  0.421E-03    4.08       6.6  T
   8    -24.4807604 -0.326429E-07  0.125E-03    4.08      22.2  T
   9    -24.4807604 -0.988602E-08  0.657E-04    4.08      42.2  T
  10    -24.4807604 -0.736691E-09  0.116E-04    4.08     239.1  T
     SCC iter.                  ...        0 min,  0.306 sec
     gradient                   ...        0 min,  0.089 sec
 * total energy  :   -24.1789216 Eh     change        0.1117541E-01 Eh
   gradient norm :     0.1117640 Eh/α   predicted    -0.3908204E-02 (-134.97%)
   displ. norm   :     0.4631793 α      lambda       -0.2611807E-01
   maximum displ.:     0.2595446 α      in ANC's #2, #3, #12, ...

........................................................................
.............................. CYCLE   14 ..............................
........................................................................
   1    -24.5033246 -0.245033E+02  0.421E-01    4.21       0.0  T
   2    -24.5035485 -0.223896E-03  0.233E-01    4.17       1.0  T
   3    -24.5035416  0.693511E-05  0.117E-01    4.17       1.0  T
   4    -24.5036038 -0.622593E-04  0.393E-02    4.17       1.0  T
   5    -24.5036075 -0.369293E-05  0.147E-02    4.17       1.9  T
   6    -24.5036078 -0.324720E-06  0.829E-03    4.17       3.3  T
   7    -24.5036081 -0.219297E-06  0.306E-03    4.17       9.1  T
   8    -24.5036081 -0.214066E-07  0.871E-04    4.17      31.8  T
   9    -24.5036081 -0.334931E-08  0.511E-04    4.17      54.3  T
     SCC iter.                  ...        0 min,  0.290 sec
     gradient                   ...        0 min,  0.090 sec
 * total energy  :   -24.1916189 Eh     change       -0.1269728E-01 Eh
   gradient norm :     0.0302455 Eh/α   predicted    -0.1586065E-01 (  24.91%)
   displ. norm   :     0.0776531 α      lambda       -0.7814424E-03
   maximum displ.:     0.0473683 α      in ANC's #1, #4, #2, ...

........................................................................
.............................. CYCLE   15 ..............................
........................................................................
   1    -24.5060583 -0.245061E+02  0.681E-02    4.17       0.0  T
   2    -24.5060605 -0.222832E-05  0.412E-02    4.17       1.0  T
   3    -24.5060586  0.192029E-05  0.184E-02    4.17       1.5  T
   4    -24.5060616 -0.297771E-05  0.248E-03    4.17      11.2  T
   5    -24.5060616 -0.623305E-08  0.165E-03    4.17      16.8  T
   6    -24.5060616 -0.700295E-08  0.731E-04    4.17      37.9  T
   7    -24.5060616 -0.137635E-08  0.186E-04    4.17     149.1  T
     SCC iter.                  ...        0 min,  0.224 sec
     gradient                   ...        0 min,  0.093 sec
 * total energy  :   -24.1921328 Eh     change       -0.5139347E-03 Eh
   gradient norm :     0.0169634 Eh/α   predicted    -0.3930789E-03 ( -23.52%)
   displ. norm   :     0.0752475 α      lambda       -0.6765584E-03
   maximum displ.:     0.0383423 α      in ANC's #1, #26, #25, ...

........................................................................
.............................. CYCLE   16 ..............................
........................................................................
   1    -24.5079237 -0.245079E+02  0.542E-02    4.16       0.0  T
   2    -24.5079248 -0.113757E-05  0.328E-02    4.16       1.0  T
   3    -24.5079242  0.579992E-06  0.127E-02    4.16       2.2  T
   4    -24.5079253 -0.109398E-05  0.306E-03    4.16       9.0  T
   5    -24.5079253 -0.141651E-07  0.160E-03    4.16      17.4  T
   6    -24.5079253 -0.413987E-08  0.802E-04    4.16      34.6  T
   7    -24.5079254 -0.243525E-08  0.223E-04    4.16     124.4  T
     SCC iter.                  ...        0 min,  0.211 sec
     gradient                   ...        0 min,  0.097 sec
 * total energy  :   -24.1926958 Eh     change       -0.5629496E-03 Eh
   gradient norm :     0.0082157 Eh/α   predicted    -0.3401950E-03 ( -39.57%)
   displ. norm   :     0.3159594 α      lambda       -0.2034838E-02
   maximum displ.:     0.1513023 α      in ANC's #2, #26, #1, ...

........................................................................
.............................. CYCLE   17 ..............................
........................................................................
   1    -24.5079106 -0.245079E+02  0.208E-01    4.10       0.0  T
   2    -24.5079501 -0.394987E-04  0.119E-01    4.12       1.0  T
   3    -24.5079426  0.751202E-05  0.643E-02    4.12       1.0  T
   4    -24.5079607 -0.181230E-04  0.134E-02    4.12       2.1  T
   5    -24.5079611 -0.418838E-06  0.437E-03    4.12       6.3  T
   6    -24.5079612 -0.631216E-07  0.222E-03    4.12      12.5  T
   7    -24.5079612 -0.127484E-07  0.752E-04    4.12      36.9  T
   8    -24.5079612 -0.510276E-09  0.202E-04    4.12     137.0  T
     SCC iter.                  ...        0 min,  0.263 sec
     gradient                   ...        0 min,  0.102 sec
 * total energy  :   -24.1942706 Eh     change       -0.1574847E-02 Eh
   gradient norm :     0.0179838 Eh/α   predicted    -0.1118980E-02 ( -28.95%)
   displ. norm   :     0.2634432 α      lambda       -0.1103471E-02
   maximum displ.:     0.1280775 α      in ANC's #1, #2, #26, ...

........................................................................
.............................. CYCLE   18 ..............................
........................................................................
   1    -24.5061986 -0.245062E+02  0.153E-01    4.09       0.0  T
   2    -24.5062210 -0.223291E-04  0.890E-02    4.10       1.0  T
   3    -24.5062180  0.298781E-05  0.504E-02    4.10       1.0  T
   4    -24.5062292 -0.111954E-04  0.867E-03    4.10       3.2  T
   5    -24.5062293 -0.147997E-06  0.372E-03    4.10       7.4  T
   6    -24.5062294 -0.538521E-07  0.206E-03    4.10      13.5  T
   7    -24.5062294 -0.878827E-08  0.729E-04    4.10      38.0  T
   8    -24.5062294 -0.860869E-09  0.267E-04    4.10     104.0  T
     SCC iter.                  ...        0 min,  0.341 sec
     gradient                   ...        0 min,  0.126 sec
 * total energy  :   -24.1946110 Eh     change       -0.3403642E-03 Eh
   gradient norm :     0.0339926 Eh/α   predicted    -0.5900272E-03 (  73.35%)
   displ. norm   :     0.0637597 α      lambda       -0.1327019E-02
   maximum displ.:     0.0452243 α      in ANC's #12, #5, #13, ...

........................................................................
.............................. CYCLE   19 ..............................
........................................................................
   1    -24.5109302 -0.245109E+02  0.906E-02    4.11       0.0  T
   2    -24.5109351 -0.487776E-05  0.532E-02    4.11       1.0  T
   3    -24.5109339  0.119664E-05  0.194E-02    4.11       1.4  T
   4    -24.5109368 -0.291568E-05  0.604E-03    4.11       4.6  T
   5    -24.5109369 -0.767861E-07  0.270E-03    4.11      10.3  T
   6    -24.5109369 -0.962523E-08  0.142E-03    4.11      19.6  T
   7    -24.5109369 -0.674970E-08  0.409E-04    4.11      67.8  T
   8    -24.5109369 -0.332268E-09  0.168E-04    4.11     165.0  T
     SCC iter.                  ...        0 min,  0.388 sec
     gradient                   ...        0 min,  0.122 sec
 * total energy  :   -24.1952428 Eh     change       -0.6318877E-03 Eh
   gradient norm :     0.0073919 Eh/α   predicted    -0.6662056E-03 (   5.43%)
   displ. norm   :     0.0723223 α      lambda       -0.2971797E-03
   maximum displ.:     0.0409915 α      in ANC's #26, #1, #25, ...

........................................................................
.............................. CYCLE   20 ..............................
........................................................................
   1    -24.5112680 -0.245113E+02  0.470E-02    4.10       0.0  T
   2    -24.5112694 -0.149111E-05  0.280E-02    4.11       1.0  T
   3    -24.5112690  0.400494E-06  0.115E-02    4.11       2.4  T
   4    -24.5112697 -0.692276E-06  0.283E-03    4.11       9.8  T
   5    -24.5112698 -0.297875E-07  0.898E-04    4.11      30.9  T
   6    -24.5112698 -0.128350E-08  0.499E-04    4.11      55.5  T
     SCC iter.                  ...        0 min,  0.225 sec
     gradient                   ...        0 min,  0.134 sec
 * total energy  :   -24.1954919 Eh     change       -0.2491001E-03 Eh
   gradient norm :     0.0059052 Eh/α   predicted    -0.1493686E-03 ( -40.04%)
   displ. norm   :     0.2133186 α      lambda       -0.5390056E-03
   maximum displ.:     0.1358321 α      in ANC's #1, #26, #25, ...
 * RMSD in coord.:     0.5650733 α      energy gain  -0.1507662E-01 Eh

generating ANC from model Hessian ...
Using Lindh-Hessian (1995)
 Shifting diagonal of input Hessian by    1.5145164646875493E-003
 Lowest  eigenvalues of input Hessian
    0.000000    0.000000    0.000000    0.000000    0.000000    0.000000
    0.010000    0.017307    0.023993    0.027090    0.040402    0.046604
    0.076360    0.087641    0.092965    0.099191    0.101311    0.106866
 Highest eigenvalues
    1.504541    1.654145    1.852705    1.913528    2.046415    2.148667


........................................................................
.............................. CYCLE   21 ..............................
........................................................................
   1    -24.5101169 -0.245101E+02  0.116E-01    4.09       0.0  T
   2    -24.5101220 -0.508938E-05  0.694E-02    4.10       1.0  T
   3    -24.5101200  0.201189E-05  0.228E-02    4.10       1.2  T
   4    -24.5101231 -0.316859E-05  0.554E-03    4.10       5.0  T
   5    -24.5101232 -0.111089E-06  0.198E-03    4.10      14.0  T
   6    -24.5101232 -0.267829E-08  0.103E-03    4.10      27.0  T
   7    -24.5101232 -0.343971E-08  0.340E-04    4.10      81.6  T
   8    -24.5101232 -0.263260E-09  0.801E-05    4.10     346.3  T
     SCC iter.                  ...        0 min,  0.326 sec
     gradient                   ...        0 min,  0.107 sec
 * total energy  :   -24.1957190 Eh     change       -0.2270709E-03 Eh
   gradient norm :     0.0135981 Eh/α   predicted     0.0000000E+00 (-100.00%)
   displ. norm   :     0.0359404 α      lambda       -0.1773104E-03
   maximum displ.:     0.0230658 α      in ANC's #1, #5, #6, ...

........................................................................
.............................. CYCLE   22 ..............................
........................................................................
   1    -24.5113767 -0.245114E+02  0.309E-02    4.10       0.0  T
   2    -24.5113774 -0.743869E-06  0.183E-02    4.10       1.5  T
   3    -24.5113772  0.176368E-06  0.925E-03    4.10       3.0  T
   4    -24.5113777 -0.494672E-06  0.205E-03    4.10      13.5  T
   5    -24.5113777 -0.788700E-08  0.102E-03    4.10      27.2  T
   6    -24.5113777 -0.175357E-08  0.626E-04    4.10      44.3  T
   7    -24.5113777 -0.143176E-08  0.172E-04    4.10     161.5  T
     SCC iter.                  ...        0 min,  0.294 sec
     gradient                   ...        0 min,  0.120 sec
 * total energy  :   -24.1958378 Eh     change       -0.1188123E-03 Eh
   gradient norm :     0.0047761 Eh/α   predicted    -0.8876915E-04 ( -25.29%)
   displ. norm   :     0.0238675 α      lambda       -0.3863974E-04
   maximum displ.:     0.0154433 α      in ANC's #1, #6, #5, ...

........................................................................
.............................. CYCLE   23 ..............................
........................................................................
   1    -24.5120143 -0.245120E+02  0.181E-02    4.11       0.0  T
   2    -24.5120147 -0.337696E-06  0.107E-02    4.10       2.6  T
   3    -24.5120146  0.262639E-07  0.585E-03    4.10       4.7  T
   4    -24.5120148 -0.160173E-06  0.137E-03    4.10      20.3  T
   5    -24.5120148 -0.377308E-08  0.615E-04    4.10      45.1  T
   6    -24.5120148 -0.698481E-09  0.384E-04    4.10      72.2  T
     SCC iter.                  ...        0 min,  0.287 sec
     gradient                   ...        0 min,  0.111 sec
 * total energy  :   -24.1958586 Eh     change       -0.2075453E-04 Eh
   gradient norm :     0.0006290 Eh/α   predicted    -0.1933139E-04 (  -6.86%)
   displ. norm   :     0.0155156 α      lambda       -0.2757460E-05
   maximum displ.:     0.0108697 α      in ANC's #1, #6, #3, ...

........................................................................
.............................. CYCLE   24 ..............................
........................................................................
   1    -24.5120138 -0.245120E+02  0.851E-03    4.10       0.0  T
   2    -24.5120139 -0.202675E-07  0.517E-03    4.10       5.4  T
   3    -24.5120138  0.147115E-07  0.180E-03    4.10      15.4  T
   4    -24.5120139 -0.225599E-07  0.352E-04    4.10      78.7  T
   5    -24.5120139 -0.277325E-09  0.150E-04    4.10     184.3  T
     SCC iter.                  ...        0 min,  0.252 sec
     gradient                   ...        0 min,  0.133 sec
 * total energy  :   -24.1958612 Eh     change       -0.2583010E-05 Eh
   gradient norm :     0.0004263 Eh/α   predicted    -0.1379941E-05 ( -46.58%)
   displ. norm   :     0.0068736 α      lambda       -0.6195808E-06
   maximum displ.:     0.0043787 α      in ANC's #6, #1, #8, ...

   *** GEOMETRY OPTIMIZATION CONVERGED AFTER 24 ITERATIONS ***

------------------------------------------------------------------------
 total energy gain   :        -0.0154458 Eh       -9.6924 kcal/mol
 total RMSD          :         0.5700506 a0        0.3017 Å
 total power (kW/mol):        -1.6897102 (step)   -3.8337 (real)
------------------------------------------------------------------------

 ANCopt (total)                0 d,  0 h,  0 min, 10.578 sec
 optimizer setup                ...        0 min,  0.000 sec (  0.001%)
 model hessian                  ...        0 min,  0.006 sec (  0.058%)
 ANC generation                 ...        0 min,  0.001 sec (  0.012%)
 coordinate transformation      ...        0 min,  0.001 sec (  0.007%)
 single point calculation       ...        0 min, 10.353 sec ( 97.877%)
 optimization log               ...        0 min,  0.002 sec (  0.021%)
 hessian update                 ...        0 min,  0.207 sec (  1.957%)
 rational function              ...        0 min,  0.004 sec (  0.035%)

================
 final structure:
================
13
 xtb: 6.4.1 (bd6e46d)
C         0.52637559750052   -1.10786373672316    0.05366292885132
C        -0.77920725519715   -1.14904784014634    0.50959811939337
C        -1.51928212802705    0.01690062108310    0.51559591251788
C        -0.99424905969595    1.22046338793406    0.08108486940036
C         0.30963061643031    1.25356338605883   -0.37203579401571
C         1.07958850413933    0.09095599668985   -0.38903772854508
O         2.35180331470899    0.17798056335680   -0.84304122275639
F        -2.80680545420683   -0.01969072162162    0.96370181302835
H         1.11539992301239   -2.01341386163752    0.04455610510815
H        -1.22061150729946   -2.06969212527065    0.85617013418252
H        -1.60189660928614    2.11080812129953    0.09962378527213
H         0.75139833856456    2.17365187228386   -0.71850633540527
H         2.78775571935649   -0.68451566330675   -0.80137258703164

 Bond Distances (Angstroems)
 ---------------------------
C1-C2=1.3835         C1-C6=1.3926         C1-H9=1.0803         C2-C1=1.3835         C2-C3=1.3810         C2-H10=1.0782        
C3-C2=1.3810         C3-C4=1.3831         C3-F8=1.3638         C4-C3=1.3831         C4-C5=1.3808         C4-H11=1.0781        
C5-C4=1.3808         C5-C6=1.3946         C5-H12=1.0779        C6-C1=1.3926         C6-C5=1.3946         C6-O7=1.3536         
O7-C6=1.3536         O7-H13=0.9673        F8-C3=1.3638         H9-C1=1.0803         H10-C2=1.0782        H11-C4=1.0781        
H12-C5=1.0779        H13-O7=0.9673        
 C  H  Rav=1.0786 sigma=0.0010  Rmin=1.0779  Rmax=1.0803     4
 C  C  Rav=1.3859 sigma=0.0055  Rmin=1.3808  Rmax=1.3946     6
 O  H  Rav=0.9673 sigma=0.0000  Rmin=0.9673  Rmax=0.9673     1
 O  C  Rav=1.3536 sigma=0.0000  Rmin=1.3536  Rmax=1.3536     1
 F  C  Rav=1.3638 sigma=0.0000  Rmin=1.3638  Rmax=1.3638     1

 selected bond angles (degree)
 --------------------
C6-C1-C2=120.35                H9-C1-C2=119.50                H9-C1-C6=120.15                C3-C2-C1=118.82                
H10-C2-C1=121.18               H10-C2-C3=120.01               C4-C3-C2=122.00                F8-C3-C2=118.99                
F8-C3-C4=119.01                C5-C4-C3=118.84                H11-C4-C3=119.95               H11-C4-C5=121.20               
C6-C5-C4=120.36                H12-C5-C4=120.86               H12-C5-C6=118.78               C5-C6-C1=119.64                
O7-C6-C1=122.37                O7-C6-C5=118.00                H13-O7-C6=110.60               

 selected dihedral angles (degree)
 ---------------------------------
C3-C2-C1-C6=  0.06            C3-C2-C1-H9=179.98            H10-C2-C1-C6=180.05           H10-C2-C1-H9=359.97           
C4-C3-C2-C1=359.96            C4-C3-C2-H10=179.97           F8-C3-C2-C1=179.97            F8-C3-C2-H10=359.97           
C5-C4-C3-C2=  0.00            C5-C4-C3-F8=180.01            H11-C4-C3-C2=179.97           H11-C4-C3-F8=359.96           
C6-C5-C4-C3=  0.00            C6-C5-C4-H11=180.04           H12-C5-C4-C3=179.97           H12-C5-C4-H11=  0.00          
C5-C6-C1-C2=359.95            C5-C6-C1-H9=180.03            O7-C6-C1-C2=179.99            O7-C6-C1-H9=  0.07            
C1-C6-C5-C4=  0.03            C1-C6-C5-H12=180.05           O7-C6-C5-C4=179.99            O7-C6-C5-H12=  0.00           
H13-O7-C6-C1=359.49           H13-O7-C6-C5=179.53           
           -------------------------------------------------
          |                Final Singlepoint                |
           -------------------------------------------------

          ...................................................
          :                      SETUP                      :
          :.................................................:
          :  # basis functions                  37          :
          :  # atomic orbitals                  37          :
          :  # shells                           21          :
          :  # electrons                        42          :
          :  max. iterations                   250          :
          :  Hamiltonian                  GFN2-xTB          :
          :  restarted?                      false          :
          :  GBSA solvation                   true          :
          :  PC potential                    false          :
          :  electronic temp.          300.0000000     K    :
          :  accuracy                    1.0000000          :
          :  -> integral cutoff          0.2500000E+02      :
          :  -> integral neglect         0.1000000E-07      :
          :  -> SCF convergence          0.1000000E-05 Eh   :
          :  -> wf. convergence          0.1000000E-03 e    :
          :  Broyden damping             0.4000000          :
          ...................................................

 iter      E             dE          RMSdq      gap      omega  full diag
   1    -24.5120139 -0.245120E+02  0.789E-05    4.10       0.0  T
   2    -24.5120139 -0.815348E-11  0.499E-05    4.10     555.4  T
   3    -24.5120139 -0.930811E-12  0.286E-05    4.10     971.1  T

   *** convergence criteria satisfied after 3 iterations ***

         #    Occupation            Energy/Eh            Energy/eV
      -------------------------------------------------------------
         1        2.0000           -0.8160904             -22.2069
       ...           ...                  ...                  ...
        15        2.0000           -0.4914923             -13.3742
        16        2.0000           -0.4746896             -12.9170
        17        2.0000           -0.4700594             -12.7910
        18        2.0000           -0.4629234             -12.5968
        19        2.0000           -0.4329437             -11.7810
        20        2.0000           -0.4205379             -11.4434
        21        2.0000           -0.3900935             -10.6150 (HOMO)
        22                         -0.2392807              -6.5112 (LUMO)
        23                         -0.2240683              -6.0972
        24                         -0.1014462              -2.7605
        25                          0.0347614               0.9459
        26                          0.0730445               1.9876
       ...                                ...                  ...
        37                          0.6556754              17.8418
      -------------------------------------------------------------
                  HL-Gap            0.1508128 Eh            4.1038 eV
             Fermi-level           -0.3146871 Eh           -8.5631 eV

 SCC (total)                   0 d,  0 h,  0 min,  0.308 sec
 SCC setup                      ...        0 min,  0.018 sec (  5.844%)
 Dispersion                     ...        0 min,  0.019 sec (  6.250%)
 classical contributions        ...        0 min,  0.009 sec (  3.078%)
 integral evaluation            ...        0 min,  0.030 sec (  9.846%)
 iterations                     ...        0 min,  0.100 sec ( 32.605%)
 molecular gradient             ...        0 min,  0.130 sec ( 42.277%)
 printout                       ...        0 min,  0.000 sec (  0.031%)

         :::::::::::::::::::::::::::::::::::::::::::::::::::::
         ::                     SUMMARY                     ::
         :::::::::::::::::::::::::::::::::::::::::::::::::::::
         :: total energy             -24.195861170340 Eh    ::
         :: total w/o Gsasa/hb       -24.186903434553 Eh    ::
         :: gradient norm              0.000427013518 Eh/a0 ::
         :: HOMO-LUMO gap              4.103824721461 eV    ::
         ::.................................................::
         :: SCC energy               -24.512013863366 Eh    ::
         :: -> isotropic ES            0.038044258717 Eh    ::
         :: -> anisotropic ES          0.000883850143 Eh    ::
         :: -> anisotropic XC          0.003307126812 Eh    ::
         :: -> dispersion             -0.009261389744 Eh    ::
         :: -> Gsolv                  -0.013933500032 Eh    ::
         ::    -> Gelec               -0.004975764245 Eh    ::
         ::    -> Gsasa               -0.008081530105 Eh    ::
         ::    -> Ghb                 -0.002923481035 Eh    ::
         ::    -> Gshift               0.002047275352 Eh    ::
         :: repulsion energy           0.316141970703 Eh    ::
         :: add. restraining           0.000000000000 Eh    ::
         :: total charge              -0.000000000000 e     ::
         :::::::::::::::::::::::::::::::::::::::::::::::::::::

           -------------------------------------------------
          |                Property Printout                |
           -------------------------------------------------

    * Orbital Energies and Occupations

         #    Occupation            Energy/Eh            Energy/eV
      -------------------------------------------------------------
         1        2.0000           -0.8160904             -22.2069
       ...           ...                  ...                  ...
         9        2.0000           -0.5538151             -15.0701
        10        2.0000           -0.5447956             -14.8246
        11        2.0000           -0.5349495             -14.5567
        12        2.0000           -0.5231322             -14.2352
        13        2.0000           -0.5115167             -13.9191
        14        2.0000           -0.5012116             -13.6387
        15        2.0000           -0.4914923             -13.3742
        16        2.0000           -0.4746896             -12.9170
        17        2.0000           -0.4700594             -12.7910
        18        2.0000           -0.4629234             -12.5968
        19        2.0000           -0.4329437             -11.7810
        20        2.0000           -0.4205379             -11.4434
        21        2.0000           -0.3900935             -10.6150 (HOMO)
        22                         -0.2392807              -6.5112 (LUMO)
        23                         -0.2240683              -6.0972
        24                         -0.1014462              -2.7605
        25                          0.0347614               0.9459
        26                          0.0730445               1.9876
        27                          0.1336833               3.6377
        28                          0.1441776               3.9233
        29                          0.1669366               4.5426
        30                          0.1931937               5.2571
        31                          0.2053870               5.5889
        32                          0.3712531              10.1023
       ...                                ...                  ...
        37                          0.6556754              17.8418
      -------------------------------------------------------------
                  HL-Gap            0.1508128 Eh            4.1038 eV
             Fermi-level           -0.3146871 Eh           -8.5631 eV

     #   Z          covCN         q      C6AA      α(0)
     1   6 C        2.923    -0.072    29.804     8.953
     2   6 C        2.916    -0.052    29.285     8.874
     3   6 C        2.787     0.153    24.667     8.135
     4   6 C        2.916    -0.052    29.281     8.873
     5   6 C        2.924    -0.056    29.400     8.892
     6   6 C        2.844     0.147    24.804     8.162
     7   8 O        1.660    -0.407    20.982     6.184
     8   9 F        0.786    -0.264    11.913     4.077
     9   1 H        0.926     0.060     2.197     2.318
    10   1 H        0.926     0.063     2.163     2.300
    11   1 H        0.926     0.063     2.161     2.299
    12   1 H        0.926     0.067     2.113     2.273
    13   1 H        0.805     0.348     0.592     1.208

 Mol. C6AA /au·bohr⁶  :       2130.120175
 Mol. C8AA /au·bohr⁸  :      51720.973814
 Mol. α(0) /au        :         72.548023


Wiberg/Mayer (AO) data.
largest (>0.10) Wiberg bond orders for each atom

 ---------------------------------------------------------------------------
     #   Z sym  total        # sym  WBO       # sym  WBO       # sym  WBO
 ---------------------------------------------------------------------------
     1   6 C    3.986 --     2 C    1.445     6 C    1.369     9 H    0.965
                             4 C    0.105
     2   6 C    3.989 --     1 C    1.445     3 C    1.403    10 H    0.967
                             5 C    0.108
     3   6 C    3.870 --     2 C    1.403     4 C    1.392     8 F    0.926
     4   6 C    3.989 --     5 C    1.459     3 C    1.392    11 H    0.966
                             1 C    0.105
     5   6 C    3.987 --     4 C    1.459     6 C    1.357    12 H    0.967
                             2 C    0.108
     6   6 C    3.947 --     1 C    1.369     5 C    1.357     7 O    1.095
     7   8 O    2.119 --     6 C    1.095    13 H    0.858
     8   9 F    1.042 --     3 C    0.926
     9   1 H    0.996 --     1 C    0.965
    10   1 H    0.996 --     2 C    0.967
    11   1 H    0.996 --     4 C    0.966
    12   1 H    0.995 --     5 C    0.967
    13   1 H    0.879 --     7 O    0.858
 ---------------------------------------------------------------------------

Topologies differ in total number of bonds
Writing topology from bond orders to xtbtopo.mol

molecular dipole:
                 x           y           z       tot (Debye)
 q only:        1.239      -0.482      -0.316
   full:        1.211      -0.659      -0.268       3.570
molecular quadrupole (traceless):
                xx          xy          yy          xz          yz          zz
 q only:       -4.326      -4.725       5.193       2.567       0.534      -0.867
  q+dip:       -5.574      -6.506       8.441       2.675       0.012      -2.867
   full:       -5.577      -6.304       6.779       3.332       0.726      -1.202

           -------------------------------------------------
          |                Geometry Summary                 |
           -------------------------------------------------

      molecular mass/u    :      112.1019272
   center of mass at/Å    :       -0.2711040       0.0525383       0.0810663
  moments of inertia/u·Å² :        0.8907501E+02   0.3458653E+03   0.4349402E+03
rotational constants/cm⁻¹ :        0.1892521E+00   0.4874046E-01   0.3875851E-01

 * 12 selected distances

     #   Z          #   Z                                           value/Å
     1   6 C        2   6 C                                       1.3835171
     2   6 C        3   6 C                                       1.3810078
     3   6 C        4   6 C                                       1.3831207
     4   6 C        5   6 C                                       1.3807665
     1   6 C        6   6 C                                       1.3925506
     5   6 C        6   6 C                                       1.3945537 (max)
     6   6 C        7   8 O                                       1.3535963
     1   6 C        9   1 H                                       1.0803026
     2   6 C       10   1 H                                       1.0782095
     4   6 C       11   1 H                                       1.0780969
     5   6 C       12   1 H                                       1.0778513
     7   8 O       13   1 H                                       0.9673110 (min)

 * 4 distinct bonds (by element types)

   Z      Z             #   av. dist./Å        max./Å        min./Å
   1 H    6 C           4     1.0786151     1.0803026     1.0778513
   6 C    6 C           6     1.3859194     1.3945537     1.3807665
   1 H    8 O           1     0.9673110     0.9673110     0.9673110
   6 C    8 O           1     1.3535963     1.3535963     1.3535963


optimized geometry written to: xtbopt.xyz


           -------------------------------------------------
          | TOTAL ENERGY              -24.195861170340 Eh   |
          | GRADIENT NORM               0.000427013518 Eh/α |
          | HOMO-LUMO GAP               4.103824721461 eV   |
           -------------------------------------------------

------------------------------------------------------------------------
 * finished run on 2022/03/02 at 03:03:23.200     
------------------------------------------------------------------------
 total:
 * wall-time:     0 d,  0 h,  0 min, 11.561 sec
 *  cpu-time:     0 d,  0 h, 17 min, 15.018 sec
 * ratio c/w:    89.523 speedup
 SCF:
 * wall-time:     0 d,  0 h,  0 min,  0.523 sec
 *  cpu-time:     0 d,  0 h,  0 min, 47.373 sec
 * ratio c/w:    90.556 speedup
 ANC optimizer:
 * wall-time:     0 d,  0 h,  0 min, 10.887 sec
 *  cpu-time:     0 d,  0 h, 16 min, 17.937 sec
 * ratio c/w:    89.825 speedup

