12
 energy: -23.973763657320 gnorm: 0.000203212483 xtb: 6.4.1 (bd6e46d)
C         1.02166961453201    0.93745326120938   -0.00709148127573
C        -0.28620126764314    1.35971521474427   -0.00850892062822
C        -1.29940815253497    0.41907899887621   -0.00131936813770
C        -1.02655631612439   -0.93626015528238    0.00716737211116
C         0.28147795309755   -1.35778288402296    0.00856011688037
C         1.38221098402815   -0.44572816863839    0.00144688455248
O         2.59321486494076   -0.83617357982004    0.00266916669262
F        -2.62161659925864    0.84539676741852   -0.00280275569107
H         1.82412492340606    1.66551978184721   -0.01253444238653
H        -0.53338772516353    2.41324269514449   -0.01500265224015
H        -1.84262894124200   -1.64698831118304    0.01253041167930
H         0.50700066196214   -2.41747362029327    0.01508566844346
